   2   2   0   0
  0.5304947E+02  0.2475000E-09  0.2475000E-09  0.2000000E-08  0.5000000E-15
   1.0000000000000000E-004
  CAR 
 unknown system                          
     13.60687311    -24.22031276  301     -2.78589330      1.00000000
    -24.220  0.0000E+00  0.0000E+00
    -24.094  0.0000E+00  0.0000E+00
    -23.968  0.0000E+00  0.0000E+00
    -23.842 -0.1945E-29 -0.2453E-30
    -23.716 -0.3588E-25 -0.4525E-26
    -23.590 -0.2992E-21 -0.3773E-22
    -23.464 -0.1128E-17 -0.1423E-18
    -23.338 -0.1863E-14 -0.2350E-15
    -23.212 -0.1423E-11 -0.1796E-12
    -23.085 -0.4885E-09 -0.6178E-10
    -22.959 -0.7515E-07 -0.9537E-08
    -22.833 -0.5140E-05 -0.6576E-06
    -22.707 -0.1537E-03 -0.2003E-04
    -22.581 -0.1917E-02 -0.2617E-03
    -22.455 -0.8376E-02 -0.1318E-02
    -22.329  0.3011E-02 -0.9382E-03
    -22.203  0.9948E-01  0.1160E-01
    -22.077  0.2465E+00  0.4269E-01
    -21.951  0.3152E+00  0.8244E-01
    -21.825  0.3162E+00  0.1223E+00
    -21.699  0.3116E+00  0.1616E+00
    -21.572  0.3104E+00  0.2007E+00
    -21.446  0.3128E+00  0.2402E+00
    -21.320  0.3085E+00  0.2791E+00
    -21.194  0.3186E+00  0.3192E+00
    -21.068  0.3043E+00  0.3576E+00
    -20.942  0.3201E+00  0.3980E+00
    -20.816  0.3167E+00  0.4379E+00
    -20.690  0.2968E+00  0.4753E+00
    -20.564  0.3410E+00  0.5183E+00
    -20.438  0.3038E+00  0.5566E+00
    -20.312  0.2958E+00  0.5939E+00
    -20.185  0.3572E+00  0.6390E+00
    -20.059  0.3038E+00  0.6773E+00
    -19.933  0.2807E+00  0.7127E+00
    -19.807  0.3667E+00  0.7589E+00
    -19.681  0.3314E+00  0.8007E+00
    -19.555  0.2615E+00  0.8337E+00
    -19.429  0.3364E+00  0.8761E+00
    -19.303  0.3860E+00  0.9247E+00
    -19.177  0.2832E+00  0.9605E+00
    -19.051  0.2712E+00  0.9947E+00
    -18.925  0.3770E+00  0.1042E+01
    -18.798  0.3816E+00  0.1090E+01
    -18.672  0.2669E+00  0.1124E+01
    -18.546  0.2763E+00  0.1159E+01
    -18.420  0.4009E+00  0.1209E+01
    -18.294  0.3857E+00  0.1258E+01
    -18.168  0.2815E+00  0.1293E+01
    -18.042  0.2639E+00  0.1327E+01
    -17.916  0.4011E+00  0.1377E+01
    -17.790  0.4252E+00  0.1431E+01
    -17.664  0.3086E+00  0.1470E+01
    -17.538  0.2690E+00  0.1504E+01
    -17.411  0.3736E+00  0.1551E+01
    -17.285  0.4850E+00  0.1612E+01
    -17.159  0.4287E+00  0.1666E+01
    -17.033  0.3676E+00  0.1712E+01
    -16.907  0.3853E+00  0.1761E+01
    -16.781  0.4594E+00  0.1819E+01
    -16.655  0.3583E+00  0.1864E+01
    -16.529  0.1112E+00  0.1878E+01
    -16.403  0.1210E+00  0.1893E+01
    -16.277  0.2779E+00  0.1928E+01
    -16.151  0.1912E+00  0.1953E+01
    -16.024  0.6066E-01  0.1960E+01
    -15.898  0.1789E+00  0.1983E+01
    -15.772  0.3515E+00  0.2027E+01
    -15.646  0.3493E+00  0.2071E+01
    -15.520  0.3043E+00  0.2110E+01
    -15.394  0.3401E+00  0.2152E+01
    -15.268  0.3550E+00  0.2197E+01
    -15.142  0.4378E+00  0.2252E+01
    -15.016  0.4932E+00  0.2315E+01
    -14.890  0.4192E+00  0.2367E+01
    -14.764  0.3992E+00  0.2418E+01
    -14.637  0.3729E+00  0.2465E+01
    -14.511  0.3384E+00  0.2507E+01
    -14.385  0.3499E+00  0.2552E+01
    -14.259  0.3430E+00  0.2595E+01
    -14.133  0.2952E+00  0.2632E+01
    -14.007  0.3174E+00  0.2672E+01
    -13.881  0.3138E+00  0.2712E+01
    -13.755  0.2753E+00  0.2746E+01
    -13.629  0.3012E+00  0.2784E+01
    -13.503  0.2752E+00  0.2819E+01
    -13.377  0.2534E+00  0.2851E+01
    -13.250  0.3063E+00  0.2890E+01
    -13.124  0.3562E+00  0.2934E+01
    -12.998  0.3464E+00  0.2978E+01
    -12.872  0.3115E+00  0.3017E+01
    -12.746  0.4077E+00  0.3069E+01
    -12.620  0.4332E+00  0.3123E+01
    -12.494  0.3008E+00  0.3161E+01
    -12.368  0.3309E+00  0.3203E+01
    -12.242  0.4240E+00  0.3257E+01
    -12.116  0.3794E+00  0.3304E+01
    -11.990  0.3841E+00  0.3353E+01
    -11.863  0.4378E+00  0.3408E+01
    -11.737  0.3082E+00  0.3447E+01
    -11.611  0.3206E+00  0.3487E+01
    -11.485  0.5313E+00  0.3554E+01
    -11.359  0.4502E+00  0.3611E+01
    -11.233  0.2913E+00  0.3648E+01
    -11.107  0.3909E+00  0.3697E+01
    -10.981  0.4984E+00  0.3760E+01
    -10.855  0.4076E+00  0.3811E+01
    -10.729  0.3975E+00  0.3861E+01
    -10.603  0.5054E+00  0.3925E+01
    -10.476  0.4093E+00  0.3977E+01
    -10.350  0.4552E+00  0.4034E+01
    -10.224  0.7099E+00  0.4124E+01
    -10.098  0.7565E+00  0.4219E+01
     -9.972  0.7196E+00  0.4310E+01
     -9.846  0.7970E+00  0.4410E+01
     -9.720  0.8432E+00  0.4517E+01
     -9.594  0.7759E+00  0.4615E+01
     -9.468  0.8465E+00  0.4721E+01
     -9.342  0.1018E+01  0.4850E+01
     -9.216  0.1061E+01  0.4983E+01
     -9.089  0.1107E+01  0.5123E+01
     -8.963  0.1020E+01  0.5252E+01
     -8.837  0.9097E+00  0.5366E+01
     -8.711  0.8468E+00  0.5473E+01
     -8.585  0.7881E+00  0.5572E+01
     -8.459  0.7911E+00  0.5672E+01
     -8.333  0.6932E+00  0.5760E+01
     -8.207  0.6599E+00  0.5843E+01
     -8.081  0.7568E+00  0.5938E+01
     -7.955  0.7542E+00  0.6033E+01
     -7.829  0.5831E+00  0.6107E+01
     -7.702  0.5272E+00  0.6173E+01
     -7.576  0.7520E+00  0.6268E+01
     -7.450  0.7242E+00  0.6359E+01
     -7.324  0.4831E+00  0.6420E+01
     -7.198  0.5397E+00  0.6488E+01
     -7.072  0.6846E+00  0.6575E+01
     -6.946  0.6394E+00  0.6655E+01
     -6.820  0.5407E+00  0.6723E+01
     -6.694  0.4884E+00  0.6785E+01
     -6.568  0.5937E+00  0.6860E+01
     -6.442  0.6892E+00  0.6947E+01
     -6.315  0.5132E+00  0.7012E+01
     -6.189  0.4602E+00  0.7070E+01
     -6.063  0.5778E+00  0.7142E+01
     -5.937  0.6606E+00  0.7226E+01
     -5.811  0.5257E+00  0.7292E+01
     -5.685  0.3031E+00  0.7330E+01
     -5.559  0.3016E+00  0.7368E+01
     -5.433  0.4914E+00  0.7430E+01
     -5.307  0.5492E+00  0.7499E+01
     -5.181  0.4378E+00  0.7555E+01
     -5.055  0.4077E+00  0.7606E+01
     -4.928  0.5904E+00  0.7681E+01
     -4.802  0.5319E+00  0.7748E+01
     -4.676  0.1991E+00  0.7773E+01
     -4.550  0.1507E+00  0.7792E+01
     -4.424  0.3046E+00  0.7830E+01
     -4.298  0.3193E+00  0.7870E+01
     -4.172  0.1516E+00  0.7889E+01
     -4.046  0.8780E-01  0.7901E+01
     -3.920  0.1574E+00  0.7920E+01
     -3.794  0.1855E+00  0.7944E+01
     -3.668  0.1236E+00  0.7959E+01
     -3.541  0.5667E-01  0.7967E+01
     -3.415  0.5430E-01  0.7973E+01
     -3.289  0.1005E+00  0.7986E+01
     -3.163  0.7232E-01  0.7995E+01
     -3.037  0.7304E-02  0.7996E+01
     -2.911  0.2208E-02  0.7996E+01
     -2.785  0.2924E-01  0.8000E+01
     -2.659  0.2866E-01  0.8004E+01
     -2.533  0.1713E-02  0.8004E+01
     -2.407  0.1114E-01  0.8005E+01
     -2.281  0.7836E-01  0.8015E+01
     -2.154  0.1011E+00  0.8028E+01
     -2.028  0.5882E-01  0.8035E+01
     -1.902  0.6493E-01  0.8043E+01
     -1.776  0.1598E+00  0.8064E+01
     -1.650  0.2315E+00  0.8093E+01
     -1.524  0.1463E+00  0.8111E+01
     -1.398  0.1280E+00  0.8127E+01
     -1.272  0.3971E+00  0.8177E+01
     -1.146  0.6228E+00  0.8256E+01
     -1.020  0.5675E+00  0.8328E+01
     -0.894  0.4580E+00  0.8385E+01
     -0.767  0.4426E+00  0.8441E+01
     -0.641  0.4670E+00  0.8500E+01
     -0.515  0.3607E+00  0.8545E+01
     -0.389  0.2730E+00  0.8580E+01
     -0.263  0.2499E+00  0.8611E+01
     -0.137  0.2980E+00  0.8649E+01
     -0.011  0.3920E+00  0.8698E+01
      0.115  0.2808E+00  0.8734E+01
      0.241  0.1835E+00  0.8757E+01
      0.367  0.2344E+00  0.8787E+01
      0.493  0.2901E+00  0.8823E+01
      0.620  0.4283E+00  0.8877E+01
      0.746  0.5239E+00  0.8943E+01
      0.872  0.3981E+00  0.8993E+01
      0.998  0.3343E+00  0.9036E+01
      1.124  0.4310E+00  0.9090E+01
      1.250  0.5596E+00  0.9160E+01
      1.376  0.5797E+00  0.9234E+01
      1.502  0.6100E+00  0.9310E+01
      1.628  0.6692E+00  0.9395E+01
      1.754  0.7013E+00  0.9483E+01
      1.880  0.7696E+00  0.9580E+01
      2.007  0.8266E+00  0.9685E+01
      2.133  0.7540E+00  0.9780E+01
      2.259  0.6264E+00  0.9859E+01
      2.385  0.5953E+00  0.9934E+01
      2.511  0.5806E+00  0.1001E+02
      2.637  0.7411E+00  0.1010E+02
      2.763  0.8682E+00  0.1021E+02
      2.889  0.7370E+00  0.1030E+02
      3.015  0.6269E+00  0.1038E+02
      3.141  0.6760E+00  0.1047E+02
      3.267  0.7052E+00  0.1056E+02
      3.394  0.7406E+00  0.1065E+02
      3.520  0.7892E+00  0.1075E+02
      3.646  0.6332E+00  0.1083E+02
      3.772  0.4699E+00  0.1089E+02
      3.898  0.5402E+00  0.1096E+02
      4.024  0.7089E+00  0.1105E+02
      4.150  0.7016E+00  0.1113E+02
      4.276  0.6376E+00  0.1121E+02
      4.402  0.7001E+00  0.1130E+02
      4.528  0.8796E+00  0.1141E+02
      4.654  0.1059E+01  0.1155E+02
      4.781  0.9769E+00  0.1167E+02
      4.907  0.1039E+01  0.1180E+02
      5.033  0.1266E+01  0.1196E+02
      5.159  0.1233E+01  0.1212E+02
      5.285  0.1171E+01  0.1226E+02
      5.411  0.1111E+01  0.1240E+02
      5.537  0.1282E+01  0.1257E+02
      5.663  0.1596E+01  0.1277E+02
      5.789  0.1586E+01  0.1297E+02
      5.915  0.1150E+01  0.1311E+02
      6.041  0.9060E+00  0.1323E+02
      6.168  0.1018E+01  0.1335E+02
      6.294  0.1049E+01  0.1349E+02
      6.420  0.1064E+01  0.1362E+02
      6.546  0.1206E+01  0.1377E+02
      6.672  0.1044E+01  0.1390E+02
      6.798  0.6985E+00  0.1399E+02
      6.924  0.6147E+00  0.1407E+02
      7.050  0.7636E+00  0.1417E+02
      7.176  0.9793E+00  0.1429E+02
      7.302  0.1113E+01  0.1443E+02
      7.428  0.1059E+01  0.1456E+02
      7.555  0.7109E+00  0.1465E+02
      7.681  0.4405E+00  0.1471E+02
      7.807  0.6221E+00  0.1479E+02
      7.933  0.1129E+01  0.1493E+02
      8.059  0.1419E+01  0.1511E+02
      8.185  0.1206E+01  0.1526E+02
      8.311  0.8140E+00  0.1536E+02
      8.437  0.5736E+00  0.1544E+02
      8.563  0.3786E+00  0.1548E+02
      8.689  0.3220E+00  0.1552E+02
      8.815  0.5606E+00  0.1559E+02
      8.942  0.7275E+00  0.1569E+02
      9.068  0.6021E+00  0.1576E+02
      9.194  0.3221E+00  0.1580E+02
      9.320  0.7739E-01  0.1581E+02
      9.446  0.2547E-01  0.1582E+02
      9.572  0.1992E+00  0.1584E+02
      9.698  0.3697E+00  0.1589E+02
      9.824  0.2793E+00  0.1592E+02
      9.950  0.1602E+00  0.1594E+02
     10.076  0.2059E+00  0.1597E+02
     10.202  0.1794E+00  0.1599E+02
     10.329  0.4635E-01  0.1600E+02
     10.455 -0.8652E-02  0.1600E+02
     10.581 -0.4758E-02  0.1600E+02
     10.707 -0.5823E-03  0.1600E+02
     10.833 -0.2768E-04  0.1600E+02
     10.959 -0.1361E-05  0.1600E+02
     11.085 -0.2393E-04  0.1600E+02
     11.211 -0.2770E-03  0.1600E+02
     11.337 -0.8785E-03  0.1600E+02
     11.463  0.2382E-02  0.1600E+02
     11.589  0.1383E-01  0.1600E+02
     11.716  0.1644E-01  0.1600E+02
     11.842  0.5010E-02  0.1600E+02
     11.968 -0.7315E-03  0.1600E+02
     12.094 -0.4487E-03  0.1600E+02
     12.220 -0.5212E-04  0.1600E+02
     12.346 -0.2238E-05  0.1600E+02
     12.472 -0.3972E-07  0.1600E+02
     12.598 -0.3032E-09  0.1600E+02
     12.724 -0.1013E-11  0.1600E+02
     12.850 -0.1503E-14  0.1600E+02
     12.976  0.0000E+00  0.1600E+02
     13.103  0.0000E+00  0.1600E+02
     13.229  0.0000E+00  0.1600E+02
     13.355  0.0000E+00  0.1600E+02
     13.481  0.0000E+00  0.1600E+02
     13.607  0.0000E+00  0.1600E+02
