    2    2    1    1
  0.5304947E+02  0.2475000E-09  0.2475000E-09  0.2000000E-08  0.5000000E-15
   1.0000000000000000E-004
  CAR 
 unknown system                          
      8    452      8

  0.3742002E-15  0.3742002E-15  0.1262379E-14  0.1111111E-02
    1      -22.220313   1.000000
    2      -10.332206   1.000000
    3       -5.821365   1.000000
    4       -5.821353   1.000000
    5        0.513027  -0.000000
    6        1.300323  -0.000000
    7        1.623885  -0.000000
    8        2.544083  -0.000000

  0.3333333E-01  0.3712308E-15  0.1262379E-14  0.2222222E-02
    1      -22.194210   1.000000
    2      -10.301100   1.000000
    3       -5.929556   1.000000
    4       -5.878163   1.000000
    5        0.548410  -0.000000
    6        1.336168  -0.000000
    7        1.660153  -0.000000
    8        2.775283   0.000000

  0.6666667E-01  0.3677614E-15  0.1262379E-14  0.2222222E-02
    1      -22.115942   1.000000
    2      -10.207939   1.000000
    3       -6.244358   1.000000
    4       -6.040788   1.000000
    5        0.654570  -0.000000
    6        1.443673  -0.000000
    7        1.768940  -0.000000
    8        3.156353   0.000000

  0.1000000E+00  0.3677614E-15  0.1262379E-14  0.2222222E-02
    1      -21.985637   1.000000
    2      -10.052820   1.000000
    3       -6.737271   1.000000
    4       -6.289900   1.000000
    5        0.831530  -0.000000
    6        1.622800  -0.000000
    7        1.950269  -0.000000
    8        3.333669   0.000000

  0.1333333E+00  0.3747003E-15  0.1262379E-14  0.2222222E-02
    1      -21.803544   1.000000
    2       -9.836836   1.000000
    3       -7.370113   1.000000
    4       -6.598423   1.000000
    5        1.079236  -0.000000
    6        1.873312  -0.000000
    7        2.204126  -0.000000
    8        3.118250   0.000000

  0.1666667E+00  0.3885781E-15  0.1262379E-14  0.2222222E-02
    1      -21.569994   1.000000
    2       -9.561057   1.000000
    3       -8.105580   1.000000
    4       -6.940803   1.000000
    5        1.397592  -0.000000
    6        2.194855  -0.000000
    7        2.530516  -0.000000
    8        3.904213   0.000000

  0.2000000E+00  0.3885781E-15  0.1262379E-14  0.2222222E-02
    1      -21.285443   1.000000
    2       -9.226741   1.000000
    3       -8.911856   1.000000
    4       -7.295624   1.000000
    5        1.786416  -0.000000
    6        2.586673  -0.000000
    7        2.929386   0.000000
    8        3.833419   0.000000

  0.2333333E+00  0.3885781E-15  0.1262379E-14  0.2222222E-02
    1      -20.950492   1.000000
    2       -9.761415   1.000000
    3       -8.835996   1.000000
    4       -7.644788   1.000000
    5        2.245362  -0.000000
    6        3.045843   0.000000
    7        3.400694   0.000000
    8        4.285563   0.000000

  0.2666667E+00  0.3885781E-15  0.1262379E-14  0.2222222E-02
    1      -20.565934   1.000000
    2      -10.633830   1.000000
    3       -8.391669   1.000000
    4       -7.974500   1.000000
    5        2.773874   0.000000
    6        3.531831   0.000000
    7        3.944176   0.000000
    8        3.988724   0.000000

  0.3000000E+00  0.3608225E-15  0.1262379E-14  0.2222222E-02
    1      -20.132851   1.000000
    2      -11.513405   1.000000
    3       -8.275052   1.000000
    4       -7.899157   1.000000
    5        2.990879   0.000000
    6        3.370726   0.000000
    7        4.224070   0.000000
    8        4.557901   0.000000

  0.3333333E+00  0.3330669E-15  0.1262379E-14  0.2222222E-02
    1      -19.652786   1.000000
    2      -12.386922   1.000000
    3       -8.539168   1.000000
    4       -7.365774   1.000000
    5        2.083752  -0.000000
    6        4.030776   0.000000
    7        4.824751   0.000000
    8        4.888364   0.000000

  0.3666667E+00  0.3330669E-15  0.1262379E-14  0.2222222E-02
    1      -19.128047   1.000000
    2      -13.243094   1.000000
    3       -8.761044   1.000000
    4       -6.803477   1.000000
    5        1.192957  -0.000000
    6        4.618118   0.000000
    7        4.864526   0.000000
    8        5.629942   0.000000

  0.4000000E+00  0.3330669E-15  0.1262379E-14  0.2222222E-02
    1      -18.562926   1.000000
    2      -14.071949   1.000000
    3       -8.937510   1.000000
    4       -6.234369   1.000000
    5        0.356123  -0.000000
    6        4.592751   0.000000
    7        5.602271   0.000000
    8        6.440530   0.000000

  0.4333333E+00  0.3053113E-15  0.1262379E-14  0.2222222E-02
    1      -17.967503   1.000000
    2      -14.858723   1.000000
    3       -9.064828   1.000000
    4       -5.701619   1.000000
    5       -0.373741  -0.000000
    6        4.531083   0.000000
    7        6.465034   0.000000
    8        7.316400   0.000000

  0.4666667E+00  0.3330669E-15  0.1262379E-14  0.2222222E-02
    1      -17.378646   1.000000
    2      -15.563453   1.000000
    3       -9.141639   1.000000
    4       -5.289256   1.000000
    5       -0.906343  -0.000000
    6        4.491647   0.000000
    7        7.393380   0.000000
    8        8.251311   0.000000

  0.5000000E+00  0.3330669E-15  0.1262379E-14  0.1111111E-02
    1      -17.029042   1.000000
    2      -15.951749   1.000000
    3       -9.167609   1.000000
    4       -5.125974   1.000000
    5       -1.110053  -0.000000
    6        4.478821   0.000000
    7        8.307307   0.000000
    8        8.461386   0.000000

  0.3712308E-15  0.3333333E-01  0.1262379E-14  0.2222222E-02
    1      -22.194210   1.000000
    2      -10.301100   1.000000
    3       -5.929556   1.000000
    4       -5.878163   1.000000
    5        0.548410  -0.000000
    6        1.336168  -0.000000
    7        1.660146  -0.000000
    8        5.497882   0.000000

  0.3333333E-01  0.3333333E-01  0.1262379E-14  0.2222222E-02
    1      -22.194210   1.000000
    2      -10.301100   1.000000
    3       -5.929565   1.000000
    4       -5.878154   1.000000
    5        0.548410  -0.000000
    6        1.336168  -0.000000
    7        1.660147  -0.000000
    8        3.048364   0.000000

  0.6666667E-01  0.3333333E-01  0.1262379E-14  0.2222222E-02
    1      -22.142024   1.000000
    2      -10.238936   1.000000
    3       -6.137398   1.000000
    4       -5.991761   1.000000
    5        0.619183  -0.000000
    6        1.407848  -0.000000
    7        1.732674  -0.000000
    8        3.123671   0.000000

  0.1000000E+00  0.3333333E-01  0.1262379E-14  0.2222222E-02
    1      -22.037736   1.000000
    2      -10.114797   1.000000
    3       -6.531951   1.000000
    4       -6.207071   1.000000
    5        0.760760  -0.000000
    6        1.551168  -0.000000
    7        1.877737  -0.000000
    8        3.265876   0.000000

  0.1333333E+00  0.3333333E-01  0.1262379E-14  0.2222222E-02
    1      -21.881534   1.000000
    2       -9.929165   1.000000
    3       -7.083204   1.000000
    4       -6.497037   1.000000
    5        0.973122  -0.000000
    6        1.766011  -0.000000
    7        2.095352  -0.000000
    8        3.428242   0.000000

  0.1666667E+00  0.3333333E-01  0.1262379E-14  0.2222222E-02
    1      -21.673720   1.000000
    2       -9.683380   1.000000
    3       -7.757760   1.000000
    4       -6.833387   1.000000
    5        1.256187  -0.000000
    6        2.052058  -0.000000
    7        5.586659   0.000000
    8        6.785380   0.000000

  0.2000000E+00  0.3333333E-01  0.1262379E-14  0.2222222E-02
    1      -21.414669   1.000000
    2       -9.378280   1.000000
    3       -8.520111   1.000000
    4       -7.190421   1.000000
    5        1.609840  -0.000000
    6        2.408883  -0.000000
    7        2.748115   0.000000
    8        3.655383   0.000000

  0.2333333E+00  0.3333333E-01  0.1262379E-14  0.2222222E-02
    1      -21.104914   1.000000
    2       -9.341453   1.000000
    3       -9.015551   1.000000
    4       -7.549135   1.000000
    5        2.033820  -0.000000
    6        2.835122   0.000000
    7        5.242849   0.000000
    8        5.401794   0.000000

  0.2666667E+00  0.3333333E-01  0.1262379E-14  0.2222222E-02
    1      -20.745157   1.000000
    2      -10.197649   1.000000
    3       -8.597756   1.000000
    4       -7.893342   1.000000
    5        2.527698  -0.000000
    6        3.322725   0.000000
    7        4.345467   0.000000
    8        5.266520   0.000000

  0.3000000E+00  0.3333333E-01  0.1262379E-14  0.2222222E-02
    1      -20.336319   1.000000
    2      -11.070149   1.000000
    3       -8.212429   1.000000
    4       -8.128829   1.000000
    5        3.090767   0.000000
    6        3.402826   0.000000
    7        3.962157   0.000000
    8        5.126344   0.000000

  0.3333333E+00  0.3333333E-01  0.1262379E-14  0.2222222E-02
    1      -19.879690   1.000000
    2      -11.944297   1.000000
    3       -8.497382   1.000000
    4       -7.614975   1.000000
    5        2.521752  -0.000000
    6        3.721054   0.000000
    7        4.569350   0.000000
    8        4.995854   0.000000

  0.3666667E+00  0.3333333E-01  0.1262379E-14  0.2222222E-02
    1      -19.377146   1.000000
    2      -12.807554   1.000000
    3       -8.742179   1.000000
    4       -7.065004   1.000000
    5        1.620862  -0.000000
    6        4.406179   0.000000
    7        4.897979   0.000000
    8        5.274540   0.000000

  0.4000000E+00  0.3333333E-01  0.1262379E-14  0.2222222E-02
    1      -18.831768   1.000000
    2      -13.649274   1.000000
    3       -8.942633   1.000000
    4       -6.495441   1.000000
    5        0.755627  -0.000000
    6        4.740736   0.000000
    7        5.232503   0.000000
    8        6.050571   0.000000

  0.4333333E+00  0.3333333E-01  0.1262379E-14  0.2222222E-02
    1      -18.249847   1.000000
    2      -14.457843   1.000000
    3       -9.095365   1.000000
    4       -5.936947   1.000000
    5       -0.033416  -0.000000
    6        4.679160   0.000000
    7        6.050800   0.000000
    8        6.893099   0.000000

  0.4666667E+00  0.3333333E-01  0.1262379E-14  0.2222222E-02
    1      -17.649465   1.000000
    2      -15.211421   1.000000
    3       -9.198575   1.000000
    4       -5.450317   1.000000
    5       -0.678901  -0.000000
    6        4.627615   0.000000
    7        6.946996   0.000000
    8        7.797330   0.000000

  0.5000000E+00  0.3333333E-01  0.1262379E-14  0.2222222E-02
    1      -17.119507   1.000000
    2      -15.818432   1.000000
    3       -9.250227   1.000000
    4       -5.145136   1.000000
    5       -1.063899  -0.000000
    6        4.601275   0.000000
    7        7.902043   0.000000
    8        8.750094   0.000000

 -0.4666667E+00  0.3333333E-01  0.1262379E-14  0.2222222E-02
    1      -17.119508   1.000000
    2      -15.818432   1.000000
    3       -9.250227   1.000000
    4       -5.145136   1.000000
    5       -1.063899  -0.000000
    6        4.601275   0.000000
    7        7.902061   0.000000
    8        8.750126   0.000000

 -0.4333333E+00  0.3333333E-01  0.1262379E-14  0.2222222E-02
    1      -17.649466   1.000000
    2      -15.211421   1.000000
    3       -9.198575   1.000000
    4       -5.450318   1.000000
    5       -0.678901  -0.000000
    6        4.627615   0.000000
    7        6.946996   0.000000
    8        7.797336   0.000000

 -0.4000000E+00  0.3333333E-01  0.1262379E-14  0.2222222E-02
    1      -18.249847   1.000000
    2      -14.457843   1.000000
    3       -9.095366   1.000000
    4       -5.936947   1.000000
    5       -0.033416  -0.000000
    6        4.679160   0.000000
    7        6.050800   0.000000
    8        6.893103   0.000000

 -0.3666667E+00  0.3333333E-01  0.1262379E-14  0.2222222E-02
    1      -18.831769   1.000000
    2      -13.649273   1.000000
    3       -8.942634   1.000000
    4       -6.495441   1.000000
    5        0.755627  -0.000000
    6        4.740736   0.000000
    7        5.232503   0.000000
    8        6.050573   0.000000

 -0.3333333E+00  0.3333333E-01  0.1262379E-14  0.2222222E-02
    1      -19.377146   1.000000
    2      -12.807553   1.000000
    3       -8.742179   1.000000
    4       -7.065004   1.000000
    5        1.620862  -0.000000
    6        4.406179   0.000000
    7        4.897982   0.000000
    8        5.274539   0.000000

 -0.3000000E+00  0.3333333E-01  0.1262379E-14  0.2222222E-02
    1      -19.879690   1.000000
    2      -11.944296   1.000000
    3       -8.497383   1.000000
    4       -7.614975   1.000000
    5        2.521754  -0.000000
    6        3.721054   0.000000
    7        4.569349   0.000000
    8        5.012778   0.000000

 -0.2666667E+00  0.3333333E-01  0.1262379E-14  0.2222222E-02
    1      -20.336319   1.000000
    2      -11.070148   1.000000
    3       -8.212430   1.000000
    4       -8.128829   1.000000
    5        3.090767   0.000000
    6        3.402829   0.000000
    7        3.962159   0.000000
    8        5.127332   0.000000

 -0.2333333E+00  0.3333333E-01  0.1262379E-14  0.2222222E-02
    1      -20.745157   1.000000
    2      -10.197647   1.000000
    3       -8.597756   1.000000
    4       -7.893343   1.000000
    5        2.527698  -0.000000
    6        3.322725   0.000000
    7        4.364993   0.000000
    8        5.270976   0.000000

 -0.2000000E+00  0.3333333E-01  0.1262379E-14  0.2222222E-02
    1      -21.104914   1.000000
    2       -9.341451   1.000000
    3       -9.015551   1.000000
    4       -7.549137   1.000000
    5        2.033820  -0.000000
    6        2.835122   0.000000
    7        4.079996   0.000000
    8        5.383854   0.000000

 -0.1666667E+00  0.3333333E-01  0.1262379E-14  0.2222222E-02
    1      -21.414669   1.000000
    2       -9.378280   1.000000
    3       -8.520108   1.000000
    4       -7.190424   1.000000
    5        1.609840  -0.000000
    6        2.408883  -0.000000
    7        3.657552   0.000000
    8        4.132849   0.000000

 -0.1333333E+00  0.3333333E-01  0.1262379E-14  0.2222222E-02
    1      -21.673720   1.000000
    2       -9.683380   1.000000
    3       -7.757756   1.000000
    4       -6.833391   1.000000
    5        1.256187  -0.000000
    6        5.579645   0.000000
    7        6.782603   0.000000
    8        7.475077   0.000000

 -0.1000000E+00  0.3333333E-01  0.1262379E-14  0.2222222E-02
    1      -21.881534   1.000000
    2       -9.929165   1.000000
    3       -7.083199   1.000000
    4       -6.497042   1.000000
    5        0.973122  -0.000000
    6        1.766011  -0.000000
    7        2.095336  -0.000000
    8        3.482913   0.000000

 -0.6666667E-01  0.3333333E-01  0.1262379E-14  0.2222222E-02
    1      -22.037736   1.000000
    2      -10.114797   1.000000
    3       -6.531944   1.000000
    4       -6.207078   1.000000
    5        0.760760  -0.000000
    6        1.551168  -0.000000
    7        5.580705   0.000000
    8        6.214450   0.000000

 -0.3333333E-01  0.3333333E-01  0.1262379E-14  0.2222222E-02
    1      -22.142024   1.000000
    2      -10.238936   1.000000
    3       -6.137389   1.000000
    4       -5.991770   1.000000
    5        0.619183  -0.000000
    6        1.407848  -0.000000
    7        1.732827  -0.000000
    8        2.654398  -0.000000

  0.3677614E-15  0.6666667E-01  0.1262379E-14  0.2222222E-02
    1      -22.115942   1.000000
    2      -10.207939   1.000000
    3       -6.244358   1.000000
    4       -6.040788   1.000000
    5        0.654570  -0.000000
    6        1.443673  -0.000000
    7        1.769007  -0.000000
    8        2.688035   0.000000

  0.3333333E-01  0.6666667E-01  0.1262379E-14  0.2222222E-02
    1      -22.142024   1.000000
    2      -10.238936   1.000000
    3       -6.137398   1.000000
    4       -5.991761   1.000000
    5        0.619183  -0.000000
    6        1.407849  -0.000000
    7        1.732675  -0.000000
    8        2.651552  -0.000000

  0.6666667E-01  0.6666667E-01  0.1262379E-14  0.2222222E-02
    1      -22.115942   1.000000
    2      -10.207939   1.000000
    3       -6.244367   1.000000
    4       -6.040779   1.000000
    5        0.654570  -0.000000
    6        1.443673  -0.000000
    7        1.768943  -0.000000
    8        2.687452   0.000000

  0.1000000E+00  0.6666667E-01  0.1262379E-14  0.2222222E-02
    1      -22.037736   1.000000
    2      -10.114797   1.000000
    3       -6.531954   1.000000
    4       -6.207067   1.000000
    5        0.760760  -0.000000
    6        1.551168  -0.000000
    7        5.589819   0.000000
    8        6.179143   0.000000

  0.1333333E+00  0.6666667E-01  0.1262379E-14  0.2222222E-02
    1      -21.907548   1.000000
    2       -9.959912   1.000000
    3       -6.968206   1.000000
    4       -6.480690   1.000000
    5        0.937755  -0.000000
    6        1.730247  -0.000000
    7        5.760316   0.000000
    8        7.491139   0.000000

  0.1666667E+00  0.6666667E-01  0.1262379E-14  0.2222222E-02
    1      -21.725629   1.000000
    2       -9.744443   1.000000
    3       -7.536419   1.000000
    4       -6.823575   1.000000
    5        1.185527  -0.000000
    6        1.980668  -0.000000
    7        5.815787   0.000000
    8        6.941627   0.000000

  0.2000000E+00  0.6666667E-01  0.1262379E-14  0.2222222E-02
    1      -21.492314   1.000000
    2       -9.469187   1.000000
    3       -8.213884   1.000000
    4       -7.198798   1.000000
    5        1.503974  -0.000000
    6        2.302153  -0.000000
    7        5.816654   0.000000
    8        6.279187   0.000000

  0.2333333E+00  0.6666667E-01  0.1262379E-14  0.2222222E-02
    1      -21.208065   1.000000
    2       -9.135646   1.000000
    3       -8.972583   1.000000
    4       -7.579555   1.000000
    5        1.892916  -0.000000
    6        2.694062   0.000000
    7        5.531122   0.000000
    8        5.759332   0.000000

  0.2666667E+00  0.6666667E-01  0.1262379E-14  0.2222222E-02
    1      -20.873495   1.000000
    2       -9.786635   1.000000
    3       -8.745463   1.000000
    4       -7.947841   1.000000
    5        2.352006  -0.000000
    6        3.153451   0.000000
    7        4.703846   0.000000
    8        5.666825   0.000000

  0.3000000E+00  0.6666667E-01  0.1262379E-14  0.2222222E-02
    1      -20.489448   1.000000
    2      -10.633063   1.000000
    3       -8.302379   1.000000
    4       -8.291377   1.000000
    5        2.880769   0.000000
    6        3.614397   0.000000
    7        3.903596   0.000000
    8        5.537662   0.000000

  0.3333333E+00  0.6666667E-01  0.1262379E-14  0.2222222E-02
    1      -20.057005   1.000000
    2      -11.493342   1.000000
    3       -8.601586   1.000000
    4       -7.810533   1.000000
    5        2.913946   0.000000
    6        3.478351   0.000000
    7        4.318006   0.000000
    8        5.403188   0.000000

  0.3666667E+00  0.6666667E-01  0.1262379E-14  0.2222222E-02
    1      -19.577732   1.000000
    2      -12.352622   1.000000
    3       -8.872206   1.000000
    4       -7.277845   1.000000
    5        2.021543  -0.000000
    6        4.142275   0.000000
    7        4.985750   0.000000
    8        5.279896   0.000000

  0.4000000E+00  0.6666667E-01  0.1262379E-14  0.2222222E-02
    1      -19.054021   1.000000
    2      -13.198441   1.000000
    3       -9.098595   1.000000
    4       -6.715721   1.000000
    5        1.146099  -0.000000
    6        4.850917   0.000000
    7        5.202240   0.000000
    8        5.725933   0.000000

  0.4333333E+00  0.6666667E-01  0.1262379E-14  0.2222222E-02
    1      -18.490181   1.000000
    2      -14.019336   1.000000
    3       -9.277581   1.000000
    4       -6.146086   1.000000
    5        0.322045  -0.000000
    6        5.054572   0.000000
    7        5.711246   0.000000
    8        6.532810   0.000000

  0.4666667E+00  0.6666667E-01  0.1262379E-14  0.2222222E-02
    1      -17.896412   1.000000
    2      -14.800223   1.000000
    3       -9.407095   1.000000
    4       -5.612109   1.000000
    5       -0.401057  -0.000000
    6        4.997467   0.000000
    7        6.567762   0.000000
    8        7.401417   0.000000

  0.5000000E+00  0.6666667E-01  0.1262379E-14  0.2222222E-02
    1      -17.309606   1.000000
    2      -15.500480   1.000000
    3       -9.485292   1.000000
    4       -5.196466   1.000000
    5       -0.931941  -0.000000
    6        4.958733   0.000000
    7        7.492726   0.000000
    8        8.321555   0.000000

 -0.4666667E+00  0.6666667E-01  0.1262379E-14  0.2222222E-02
    1      -16.961724   1.000000
    2      -15.886218   1.000000
    3       -9.511453   1.000000
    4       -5.031359   1.000000
    5       -1.135698  -0.000000
    6        4.945995   0.000000
    7        8.433500   0.000000
    8        9.147822   0.000000

 -0.4333333E+00  0.6666667E-01  0.1262379E-14  0.2222222E-02
    1      -17.309606   1.000000
    2      -15.500480   1.000000
    3       -9.485293   1.000000
    4       -5.196466   1.000000
    5       -0.931941  -0.000000
    6        4.958733   0.000000
    7        7.492726   0.000000
    8        8.321562   0.000000

 -0.4000000E+00  0.6666667E-01  0.1262379E-14  0.2222222E-02
    1      -17.896413   1.000000
    2      -14.800222   1.000000
    3       -9.407096   1.000000
    4       -5.612109   1.000000
    5       -0.401057  -0.000000
    6        4.997467   0.000000
    7        6.567764   0.000000
    8        7.401426   0.000000

 -0.3666667E+00  0.6666667E-01  0.1262379E-14  0.2222222E-02
    1      -18.490181   1.000000
    2      -14.019335   1.000000
    3       -9.277582   1.000000
    4       -6.146086   1.000000
    5        0.322046  -0.000000
    6        5.054572   0.000000
    7        5.711246   0.000000
    8        6.532811   0.000000

 -0.3333333E+00  0.6666667E-01  0.1262379E-14  0.2222222E-02
    1      -19.054021   1.000000
    2      -13.198439   1.000000
    3       -9.098596   1.000000
    4       -6.715721   1.000000
    5        1.146100  -0.000000
    6        4.850917   0.000000
    7        5.202239   0.000000
    8        5.725933   0.000000

 -0.3000000E+00  0.6666667E-01  0.1262379E-14  0.2222222E-02
    1      -19.577732   1.000000
    2      -12.352620   1.000000
    3       -8.872208   1.000000
    4       -7.277846   1.000000
    5        2.021544  -0.000000
    6        4.142275   0.000000
    7        4.985750   0.000000
    8        5.279896   0.000000

 -0.2666667E+00  0.6666667E-01  0.1262379E-14  0.2222222E-02
    1      -20.057005   1.000000
    2      -11.493340   1.000000
    3       -8.601588   1.000000
    4       -7.810533   1.000000
    5        2.913947   0.000000
    6        3.478351   0.000000
    7        4.318006   0.000000
    8        5.404151   0.000000

 -0.2333333E+00  0.6666667E-01  0.1262379E-14  0.2222222E-02
    1      -20.489448   1.000000
    2      -10.633060   1.000000
    3       -8.302379   1.000000
    4       -8.291380   1.000000
    5        2.880769   0.000000
    6        3.614397   0.000000
    7        3.903600   0.000000
    8        5.537195   0.000000

 -0.2000000E+00  0.6666667E-01  0.1262379E-14  0.2222222E-02
    1      -20.873495   1.000000
    2       -9.786631   1.000000
    3       -8.745463   1.000000
    4       -7.947845   1.000000
    5        2.352006  -0.000000
    6        3.153454   0.000000
    7        4.709335   0.000000
    8        5.662890   0.000000

 -0.1666667E+00  0.6666667E-01  0.1262379E-14  0.2222222E-02
    1      -21.208065   1.000000
    2       -9.135647   1.000000
    3       -8.972578   1.000000
    4       -7.579560   1.000000
    5        1.892902  -0.000000
    6        2.693976   0.000000
    7        5.527462   0.000000
    8        5.756948   0.000000

 -0.1333333E+00  0.6666667E-01  0.1262379E-14  0.2222222E-02
    1      -21.492314   1.000000
    2       -9.469187   1.000000
    3       -8.213878   1.000000
    4       -7.198804   1.000000
    5        1.503974  -0.000000
    6        2.639012  -0.000000
    7        5.814094   0.000000
    8        6.281299   0.000000

 -0.1000000E+00  0.6666667E-01  0.1262379E-14  0.2222222E-02
    1      -21.725630   1.000000
    2       -9.744443   1.000000
    3       -7.536411   1.000000
    4       -6.823583   1.000000
    5        1.185527  -0.000000
    6        1.980668  -0.000000
    7        3.254017   0.000000
    8        5.791079   0.000000

 -0.6666667E-01  0.6666667E-01  0.1262379E-14  0.2222222E-02
    1      -21.907548   1.000000
    2       -9.959912   1.000000
    3       -6.968196   1.000000
    4       -6.480700   1.000000
    5        0.937755  -0.000000
    6        1.730247  -0.000000
    7        2.059075  -0.000000
    8        2.974790   0.000000

 -0.3333333E-01  0.6666667E-01  0.1262379E-14  0.2222222E-02
    1      -22.037736   1.000000
    2      -10.114797   1.000000
    3       -6.531944   1.000000
    4       -6.207078   1.000000
    5        0.760760  -0.000000
    6        1.551168  -0.000000
    7        1.877742  -0.000000
    8        2.795241   0.000000

  0.3677614E-15  0.1000000E+00  0.1262379E-14  0.2222222E-02
    1      -21.985637   1.000000
    2      -10.052820   1.000000
    3       -6.737271   1.000000
    4       -6.289900   1.000000
    5        2.888014   0.000000
    6        5.529640   0.000000
    7        6.465032   0.000000
    8        7.737926   0.000000

  0.3333333E-01  0.1000000E+00  0.1262379E-14  0.2222222E-02
    1      -22.037736   1.000000
    2      -10.114797   1.000000
    3       -6.531951   1.000000
    4       -6.207071   1.000000
    5        1.551150  -0.000000
    6        5.559384   0.000000
    7        6.213007   0.000000
    8        7.909154   0.000000

  0.6666667E-01  0.1000000E+00  0.1262379E-14  0.2222222E-02
    1      -22.037736   1.000000
    2      -10.114797   1.000000
    3       -6.531954   1.000000
    4       -6.207067   1.000000
    5        0.760760  -0.000000
    6        1.551168  -0.000000
    7        5.587056   0.000000
    8        6.213872   0.000000

  0.1000000E+00  0.1000000E+00  0.1262379E-14  0.2222222E-02
    1      -21.985637   1.000000
    2      -10.052820   1.000000
    3       -6.737279   1.000000
    4       -6.289892   1.000000
    5        0.831530  -0.000000
    6        1.941121  -0.000000
    7        5.534230   0.000000
    8        6.412470   0.000000

  0.1333333E+00  0.1000000E+00  0.1262379E-14  0.2222222E-02
    1      -21.881534   1.000000
    2       -9.929165   1.000000
    3       -7.083209   1.000000
    4       -6.497032   1.000000
    5        0.973123  -0.000000
    6        5.610309   0.000000
    7        6.786607   0.000000
    8        7.412538   0.000000

  0.1666667E+00  0.1000000E+00  0.1262379E-14  0.2222222E-02
    1      -21.725629   1.000000
    2       -9.744443   1.000000
    3       -7.536422   1.000000
    4       -6.823572   1.000000
    5        1.185529  -0.000000
    6        1.980668  -0.000000
    7        5.795466   0.000000
    8        6.944567   0.000000

  0.2000000E+00  0.1000000E+00  0.1262379E-14  0.2222222E-02
    1      -21.518211   1.000000
    2       -9.499564   1.000000
    3       -8.086084   1.000000
    4       -7.227350   1.000000
    5        2.266525  -0.000000
    6        6.003287   0.000000
    7        6.357025   0.000000
    8        7.428204   0.000000

  0.2333333E+00  0.1000000E+00  0.1262379E-14  0.2222222E-02
    1      -21.259703   1.000000
    2       -9.195664   1.000000
    3       -8.728937   1.000000
    4       -7.657044   1.000000
    5        1.822470  -0.000000
    6        2.623284  -0.000000
    7        5.678827   0.000000
    8        6.150855   0.000000

  0.2666667E+00  0.1000000E+00  0.1262379E-14  0.2222222E-02
    1      -20.950641   1.000000
    2       -9.453708   1.000000
    3       -8.834544   1.000000
    4       -8.074779   1.000000
    5        2.247080  -0.000000
    6        3.050157   0.000000
    7        4.922101   0.000000
    8        6.103250   0.000000

  0.3000000E+00  0.1000000E+00  0.1262379E-14  0.2222222E-02
    1      -20.591775   1.000000
    2      -10.237979   1.000000
    3       -8.461771   1.000000
    4       -8.418594   1.000000
    5        3.536909   0.000000
    6        4.112016   0.000000
    7        6.117463   0.000000
    8        9.281506   0.000000

  0.3333333E+00  0.1000000E+00  0.1262379E-14  0.2222222E-02
    1      -20.184081   1.000000
    2      -11.058875   1.000000
    3       -8.810079   1.000000
    4       -7.951638   1.000000
    5        3.234158   0.000000
    6        4.133457   0.000000
    7        6.012877   0.000000
    8       10.111190   0.000000

  0.3666667E+00  0.1000000E+00  0.1262379E-14  0.2222222E-02
    1      -19.728887   1.000000
    2      -11.895677   1.000000
    3       -9.114769   1.000000
    4       -7.439142   1.000000
    5        2.370592  -0.000000
    6        3.936141   0.000000
    7        4.764677   0.000000
    8        5.876565   0.000000

  0.4000000E+00  0.1000000E+00  0.1262379E-14  0.2222222E-02
    1      -19.228142   1.000000
    2      -12.732125   1.000000
    3       -9.372494   1.000000
    4       -6.890545   1.000000
    5        1.504754  -0.000000
    6        4.942726   0.000000
    7        5.468542   0.000000
    8       11.606873   0.000000

  0.4333333E+00  0.1000000E+00  0.1262379E-14  0.2222222E-02
    1      -18.685069   1.000000
    2      -13.554249   1.000000
    3       -9.581571   1.000000
    4       -6.321180   1.000000
    5        0.668922  -0.000000
    6        5.375223   0.000000
    7        5.700075   0.000000
    8        6.238102   0.000000

  0.4666667E+00  0.1000000E+00  0.1262379E-14  0.2222222E-02
    1      -18.106067   1.000000
    2      -14.348303   1.000000
    3       -9.739549   1.000000
    4       -5.760594   1.000000
    5       -0.100761  -0.000000
    6        5.568055   0.000000
    7        6.262564   0.000000
    8        7.068177   0.000000

  0.5000000E+00  0.1000000E+00  0.1262379E-14  0.2222222E-02
    1      -17.509402   1.000000
    2      -15.091027   1.000000