       N       E                     dE             d eps       ncg     rms          rms(c)
DAV:   1     0.268176724213E+02    0.26818E+02   -0.29137E+03  1688   0.608E+02
DAV:   2    -0.169159187098E+02   -0.43734E+02   -0.37832E+02  2096   0.111E+02
DAV:   3    -0.196600301158E+02   -0.27441E+01   -0.26702E+01  2160   0.359E+01
DAV:   4    -0.196832323177E+02   -0.23202E-01   -0.23202E-01  2352   0.291E+00
DAV:   5    -0.196833852727E+02   -0.15295E-03   -0.15295E-03  2192   0.132E-01    0.625E+00
RMM:   6    -0.188117291877E+02    0.87166E+00   -0.66385E-01  1770   0.615E+00    0.368E+00
RMM:   7    -0.184715497173E+02    0.34018E+00   -0.10983E+00  1801   0.774E+00    0.889E-01
RMM:   8    -0.184638793194E+02    0.76704E-02   -0.16672E-02  2037   0.115E+00    0.848E-02
RMM:   9    -0.184627059968E+02    0.11733E-02   -0.12234E-03  2042   0.240E-01    0.629E-02
RMM:  10    -0.184615644660E+02    0.11415E-02   -0.21750E-03  1849   0.247E-01    0.481E-02
RMM:  11    -0.184613947335E+02    0.16973E-03   -0.27927E-04  1877   0.103E-01    0.345E-02
RMM:  12    -0.184625270528E+02   -0.11323E-02   -0.18782E-04  1699   0.781E-02    0.158E-02
RMM:  13    -0.184630831706E+02   -0.55612E-03   -0.13846E-04  1704   0.673E-02    0.815E-03
RMM:  14    -0.184632533563E+02   -0.17019E-03   -0.17426E-05  1874   0.208E-02    0.526E-03
RMM:  15    -0.184633023124E+02   -0.48956E-04   -0.50138E-06  1917   0.148E-02    0.450E-03
RMM:  16    -0.184633110433E+02   -0.87310E-05   -0.89678E-07  1824   0.579E-03    0.102E-03
RMM:  17    -0.184633170396E+02   -0.59963E-05   -0.39513E-07  1618   0.370E-03    0.620E-04
RMM:  18    -0.184633181849E+02   -0.11452E-05   -0.14181E-07  1663   0.232E-03    0.784E-04
RMM:  19    -0.184633205280E+02   -0.23431E-05   -0.54841E-08  1365   0.164E-03    0.106E-04
RMM:  20    -0.184633207047E+02   -0.17673E-06   -0.45191E-09  1324   0.612E-04    0.105E-04
RMM:  21    -0.184633208596E+02   -0.15491E-06   -0.70356E-10  1073   0.485E-04    0.349E-05
RMM:  22    -0.184633208646E+02   -0.49903E-08   -0.41549E-10  1135   0.378E-04
   1 F= -.18463321E+02 E0= -.18463243E+02  d E =-.233128E-03
