 vasp.5.4.1 05Feb16 (build Nov 12 2018 11:59:28) complex                         
 executed on           IFC91_ompi date 2021.07.23  11:18:42
 running on    1 total cores
 distrk:  each k-point on    1 cores,    1 groups
 distr:  one band on NCORES_PER_BAND=   1 cores,    1 groups


--------------------------------------------------------------------------------------------------------


 INCAR:
 POTCAR:    PAW_PBE C 08Apr2002                   
 POTCAR:    PAW_PBE C 08Apr2002                   
   VRHFIN =C: s2p2                                                              
   LEXCH  = PE                                                                  
   EATOM  =   147.1560 eV,   10.8157 Ry                                         
                                                                                
   TITEL  = PAW_PBE C 08Apr2002                                                 
   LULTRA =        F    use ultrasoft PP ?                                      
   IUNSCR =        1    unscreen: 0-lin 1-nonlin 2-no                           
   RPACOR =    1.200    partial core radius                                     
   POMASS =   12.011; ZVAL   =    4.000    mass and valenz                      
   RCORE  =    1.500    outmost cutoff radius                                   
   RWIGS  =    1.630; RWIGS  =    0.863    wigner-seitz radius (au A)           
   ENMAX  =  400.000; ENMIN  =  300.000 eV                                      
   ICORE  =        2    local potential                                         
   LCOR   =        T    correct aug charges                                     
   LPAW   =        T    paw PP                                                  
   EAUG   =  644.873                                                            
   DEXC   =    0.000                                                            
   RMAX   =    1.529    core radius for proj-oper                               
   RAUG   =    1.300    factor for augmentation sphere                          
   RDEP   =    1.501    radius for radial grids                                 
   RDEPT  =    1.300    core radius for aug-charge                              
                                                                                
   Atomic configuration                                                         
    4 entries                                                                   
     n  l   j            E        occ.                                          
     1  0  0.50      -273.3789   2.0000                                         
     2  0  0.50       -13.7508   2.0000                                         
     2  1  0.50        -5.2854   2.0000                                         
     3  2  1.50        -5.4423   0.0000                                         
   Description                                                                  
     l       E           TYP  RCUT    TYP  RCUT                                 
     0    -13.7508458     23  1.200                                             
     0     -8.2022199     23  1.200                                             
     1     -5.2854383     23  1.500                                             
     1     34.0145650     23  1.500                                             
     2     -5.4423304      7  1.500                                             
  local pseudopotential read in
  partial core-charges read in
  partial kinetic energy density read in
  atomic valenz-charges read in
  non local Contribution for L=           0  read in
    real space projection operators read in
  non local Contribution for L=           0  read in
    real space projection operators read in
  non local Contribution for L=           1  read in
    real space projection operators read in
  non local Contribution for L=           1  read in
    real space projection operators read in
    PAW grid and wavefunctions read in

   number of l-projection  operators is LMAX  =           4
   number of lm-projection operators is LMMAX =           8

  PAW_PBE C 08Apr2002                   :
 energy of atom  1       EATOM= -147.1560
 kinetic energy error for atom=    0.0288 (will be added to EATOM!!)


 POSCAR: single layer graphene                   
  positions in cartesian coordinates
  No initial velocities read in
 exchange correlation table for  LEXCH =        8
   RHO(1)=    0.500       N(1)  =     2000
   RHO(2)=  100.500       N(2)  =     4000



--------------------------------------------------------------------------------------------------------


 ion  position               nearest neighbor table
   1  0.000  0.000  0.000-   2 1.43   2 1.43   2 1.43
   2  0.333  0.333  0.000-   1 1.43   1 1.43   1 1.43

  LATTYP: Found a hexagonal cell.
 ALAT       =     2.4750000000
 C/A-ratio  =     8.0808080808
  
  Lattice vectors:
  
 A1 = (   0.0000000000,  -2.4750000000,   0.0000000000)
 A2 = (  -2.1434128724,   1.2375000000,   0.0000000000)
 A3 = (   0.0000000000,  -0.0000000000, -20.0000000000)


Analysis of symmetry for initial positions (statically):
=====================================================================
 Subroutine PRICEL returns:
 Original cell was already a primitive cell.
 

 Routine SETGRP: Setting up the symmetry group for a 
 hexagonal supercell.


 Subroutine GETGRP returns: Found 24 space group operations
 (whereof 12 operations were pure point group operations)
 out of a pool of 24 trial point group operations.


The static configuration has the point symmetry D_3h.
 The point group associated with its full space group is D_6h.


Analysis of symmetry for dynamics (positions and initial velocities):
=====================================================================
 Subroutine PRICEL returns:
 Original cell was already a primitive cell.
 

 Routine SETGRP: Setting up the symmetry group for a 
 hexagonal supercell.


 Subroutine GETGRP returns: Found 24 space group operations
 (whereof 12 operations were pure point group operations)
 out of a pool of 24 trial point group operations.


The dynamic configuration has the point symmetry D_3h.
 The point group associated with its full space group is D_6h.


 Subroutine INISYM returns: Found 24 space group operations
 (whereof 12 operations are pure point group operations),
 and found     1 'primitive' translations



 KPOINTS: Gamma-centered k-grid                   

Automatic generation of k-mesh.
Space group operators:
 irot       det(A)        alpha          n_x          n_y          n_z        tau_x        tau_y        tau_z
    1     1.000000     0.000000     1.000000     0.000000     0.000000     0.000000     0.000000     0.000000
    2    -1.000000    60.000000     0.000000     0.000000     1.000000     0.000000     0.000000     0.000000
    3     1.000000   120.000000     0.000000     0.000000     1.000000     0.000000     0.000000     0.000000
    4    -1.000000   180.000000     0.000000     0.000000     1.000000     0.000000     0.000000     0.000000
    5     1.000000   120.000000     0.000000     0.000000    -1.000000     0.000000     0.000000     0.000000
    6    -1.000000    60.000000     0.000000     0.000000    -1.000000     0.000000     0.000000     0.000000
    7    -1.000000   179.999999    -0.000000     1.000000     0.000000     0.000000     0.000000     0.000000
    8     1.000000   180.000000     0.500000    -0.866025     0.000000     0.000000     0.000000     0.000000
    9    -1.000000   180.000000     0.866025    -0.500000     0.000000     0.000000     0.000000     0.000000
   10     1.000000   180.000000     1.000000     0.000000     0.000000     0.000000     0.000000     0.000000
   11    -1.000000   180.000000     0.866025     0.500000     0.000000     0.000000     0.000000     0.000000
   12     1.000000   180.000000    -0.500000    -0.866025     0.000000     0.000000     0.000000     0.000000
   13    -1.000000     0.000000     1.000000     0.000000     0.000000     0.333333    -0.666667     0.000000
   14     1.000000    60.000000     0.000000     0.000000     1.000000     0.333333    -0.666667     0.000000
   15    -1.000000   120.000000     0.000000     0.000000     1.000000     0.333333    -0.666667     0.000000
   16     1.000000   180.000000     0.000000     0.000000     1.000000     0.333333    -0.666667     0.000000
   17    -1.000000   120.000000     0.000000     0.000000    -1.000000     0.333333    -0.666667     0.000000
   18     1.000000    60.000000     0.000000     0.000000    -1.000000     0.333333    -0.666667     0.000000
   19     1.000000   179.999999    -0.000000     1.000000     0.000000     0.333333    -0.666667     0.000000
   20    -1.000000   180.000000     0.500000    -0.866025     0.000000     0.333333    -0.666667     0.000000
   21     1.000000   180.000000     0.866025    -0.500000     0.000000     0.333333    -0.666667     0.000000
   22    -1.000000   180.000000     1.000000     0.000000     0.000000     0.333333    -0.666667     0.000000
   23     1.000000   180.000000     0.866025     0.500000     0.000000     0.333333    -0.666667     0.000000
   24    -1.000000   180.000000    -0.500000    -0.866025     0.000000     0.333333    -0.666667     0.000000
 
 Subroutine IBZKPT returns following result:
 ===========================================
 
 Found     91 irreducible k-points:
 
 Following reciprocal coordinates:
            Coordinates               Weight
  0.000000  0.000000  0.000000      1.000000
  0.033333  0.000000  0.000000      6.000000
  0.066667  0.000000  0.000000      6.000000
  0.100000  0.000000  0.000000      6.000000
  0.133333  0.000000  0.000000      6.000000
  0.166667  0.000000  0.000000      6.000000
  0.200000  0.000000  0.000000      6.000000
  0.233333  0.000000  0.000000      6.000000
  0.266667  0.000000  0.000000      6.000000
  0.300000  0.000000  0.000000      6.000000
  0.333333  0.000000  0.000000      6.000000
  0.366667  0.000000  0.000000      6.000000
  0.400000  0.000000  0.000000      6.000000
  0.433333  0.000000  0.000000      6.000000
  0.466667  0.000000  0.000000      6.000000
  0.500000  0.000000  0.000000      3.000000
  0.066667  0.033333  0.000000      6.000000
  0.100000  0.033333  0.000000     12.000000
  0.133333  0.033333  0.000000     12.000000
  0.166667  0.033333  0.000000     12.000000
  0.200000  0.033333  0.000000     12.000000
  0.233333  0.033333  0.000000     12.000000
  0.266667  0.033333  0.000000     12.000000
  0.300000  0.033333  0.000000     12.000000
  0.333333  0.033333  0.000000     12.000000
  0.366667  0.033333  0.000000     12.000000
  0.400000  0.033333  0.000000     12.000000
  0.433333  0.033333  0.000000     12.000000
  0.466667  0.033333  0.000000     12.000000
  0.500000  0.033333  0.000000     12.000000
  0.133333  0.066667  0.000000      6.000000
  0.166667  0.066667  0.000000     12.000000
  0.200000  0.066667  0.000000     12.000000
  0.233333  0.066667  0.000000     12.000000
  0.266667  0.066667  0.000000     12.000000
  0.300000  0.066667  0.000000     12.000000
  0.333333  0.066667  0.000000     12.000000
  0.366667  0.066667  0.000000     12.000000
  0.400000  0.066667  0.000000     12.000000
  0.433333  0.066667  0.000000     12.000000
  0.466667  0.066667  0.000000     12.000000
  0.500000  0.066667  0.000000     12.000000
 -0.466667  0.066667  0.000000      6.000000
  0.200000  0.100000  0.000000      6.000000
  0.233333  0.100000  0.000000     12.000000
  0.266667  0.100000  0.000000     12.000000
  0.300000  0.100000  0.000000     12.000000
  0.333333  0.100000  0.000000     12.000000
  0.366667  0.100000  0.000000     12.000000
  0.400000  0.100000  0.000000     12.000000
  0.433333  0.100000  0.000000     12.000000
  0.466667  0.100000  0.000000     12.000000
  0.500000  0.100000  0.000000     12.000000
 -0.466667  0.100000  0.000000     12.000000
  0.266667  0.133333  0.000000      6.000000
  0.300000  0.133333  0.000000     12.000000
  0.333333  0.133333  0.000000     12.000000
  0.366667  0.133333  0.000000     12.000000
  0.400000  0.133333  0.000000     12.000000
  0.433333  0.133333  0.000000     12.000000
  0.466667  0.133333  0.000000     12.000000
  0.500000  0.133333  0.000000     12.000000
 -0.466667  0.133333  0.000000     12.000000
 -0.433333  0.133333  0.000000      6.000000
  0.333333  0.166667  0.000000      6.000000
  0.366667  0.166667  0.000000     12.000000
  0.400000  0.166667  0.000000     12.000000
  0.433333  0.166667  0.000000     12.000000
  0.466667  0.166667  0.000000     12.000000
  0.500000  0.166667  0.000000     12.000000
 -0.466667  0.166667  0.000000     12.000000
 -0.433333  0.166667  0.000000     12.000000
  0.400000  0.200000  0.000000      6.000000
  0.433333  0.200000  0.000000     12.000000
  0.466667  0.200000  0.000000     12.000000
  0.500000  0.200000  0.000000     12.000000
 -0.466667  0.200000  0.000000     12.000000
 -0.433333  0.200000  0.000000     12.000000
 -0.400000  0.200000  0.000000      6.000000
  0.466667  0.233333  0.000000      6.000000
  0.500000  0.233333  0.000000     12.000000
 -0.466667  0.233333  0.000000     12.000000
 -0.433333  0.233333  0.000000     12.000000
 -0.400000  0.233333  0.000000     12.000000
 -0.466667  0.266667  0.000000      6.000000
 -0.433333  0.266667  0.000000     12.000000
 -0.400000  0.266667  0.000000     12.000000
 -0.366667  0.266667  0.000000      6.000000
 -0.400000  0.300000  0.000000      6.000000
 -0.366667  0.300000  0.000000     12.000000
 -0.333333  0.333333  0.000000      2.000000
 
 Following cartesian coordinates:
            Coordinates               Weight
  0.000000  0.000000  0.000000      1.000000
  0.007776 -0.013468  0.000000      6.000000
  0.015552 -0.026936  0.000000      6.000000
  0.023327 -0.040404  0.000000      6.000000
  0.031103 -0.053872  0.000000      6.000000
  0.038879 -0.067340  0.000000      6.000000
  0.046655 -0.080808  0.000000      6.000000
  0.054430 -0.094276  0.000000      6.000000
  0.062206 -0.107744  0.000000      6.000000
  0.069982 -0.121212  0.000000      6.000000
  0.077758 -0.134680  0.000000      6.000000
  0.085533 -0.148148  0.000000      6.000000
  0.093309 -0.161616  0.000000      6.000000
  0.101085 -0.175084  0.000000      6.000000
  0.108861 -0.188552  0.000000      6.000000
  0.116636 -0.202020  0.000000      3.000000
  0.023327 -0.013468  0.000000      6.000000
  0.031103 -0.026936  0.000000     12.000000
  0.038879 -0.040404  0.000000     12.000000
  0.046655 -0.053872  0.000000     12.000000
  0.054430 -0.067340  0.000000     12.000000
  0.062206 -0.080808  0.000000     12.000000
  0.069982 -0.094276  0.000000     12.000000
  0.077758 -0.107744  0.000000     12.000000
  0.085533 -0.121212  0.000000     12.000000
  0.093309 -0.134680  0.000000     12.000000
  0.101085 -0.148148  0.000000     12.000000
  0.108861 -0.161616  0.000000     12.000000
  0.116636 -0.175084  0.000000     12.000000
  0.124412 -0.188552  0.000000     12.000000
  0.046655 -0.026936  0.000000      6.000000
  0.054430 -0.040404  0.000000     12.000000
  0.062206 -0.053872  0.000000     12.000000
  0.069982 -0.067340  0.000000     12.000000
  0.077758 -0.080808  0.000000     12.000000
  0.085533 -0.094276  0.000000     12.000000
  0.093309 -0.107744  0.000000     12.000000
  0.101085 -0.121212  0.000000     12.000000
  0.108861 -0.134680  0.000000     12.000000
  0.116636 -0.148148  0.000000     12.000000
  0.124412 -0.161616  0.000000     12.000000
  0.132188 -0.175084  0.000000     12.000000
 -0.093309  0.215488  0.000000      6.000000
  0.069982 -0.040404  0.000000      6.000000
  0.077758 -0.053872  0.000000     12.000000
  0.085533 -0.067340  0.000000     12.000000
  0.093309 -0.080808  0.000000     12.000000
  0.101085 -0.094276  0.000000     12.000000
  0.108861 -0.107744  0.000000     12.000000
  0.116636 -0.121212  0.000000     12.000000
  0.124412 -0.134680  0.000000     12.000000
  0.132188 -0.148148  0.000000     12.000000
  0.139964 -0.161616  0.000000     12.000000
 -0.085533  0.228956  0.000000     12.000000
  0.093309 -0.053872  0.000000      6.000000
  0.101085 -0.067340  0.000000     12.000000
  0.108861 -0.080808  0.000000     12.000000
  0.116636 -0.094276  0.000000     12.000000
  0.124412 -0.107744  0.000000     12.000000
  0.132188 -0.121212  0.000000     12.000000
  0.139964 -0.134680  0.000000     12.000000
  0.147739 -0.148148  0.000000     12.000000
 -0.077758  0.242424  0.000000     12.000000
 -0.069982  0.228956  0.000000      6.000000
  0.116636 -0.067340  0.000000      6.000000
  0.124412 -0.080808  0.000000     12.000000
  0.132188 -0.094276  0.000000     12.000000
  0.139964 -0.107744  0.000000     12.000000
  0.147739 -0.121212  0.000000     12.000000
  0.155515 -0.134680  0.000000     12.000000
 -0.069982  0.255892  0.000000     12.000000
 -0.062206  0.242424  0.000000     12.000000
  0.139964 -0.080808  0.000000      6.000000
  0.147739 -0.094276  0.000000     12.000000
  0.155515 -0.107744  0.000000     12.000000
  0.163291 -0.121212  0.000000     12.000000
 -0.062206  0.269360  0.000000     12.000000
 -0.054430  0.255892  0.000000     12.000000
 -0.046655  0.242424  0.000000      6.000000
  0.163291 -0.094276  0.000000      6.000000
  0.171067 -0.107744  0.000000     12.000000
 -0.054430  0.282828  0.000000     12.000000
 -0.046655  0.269360  0.000000     12.000000
 -0.038879  0.255892  0.000000     12.000000
 -0.046655  0.296296  0.000000      6.000000
 -0.038879  0.282828  0.000000     12.000000
 -0.031103  0.269360  0.000000     12.000000
 -0.023327  0.255892  0.000000      6.000000
 -0.023327  0.282828  0.000000      6.000000
 -0.015552  0.269360  0.000000     12.000000
  0.000000  0.269360  0.000000      2.000000
 


--------------------------------------------------------------------------------------------------------




 Dimension of arrays:
   k-points           NKPTS =     91   k-points in BZ     NKDIM =     91   number of bands    NBANDS=      8
   number of dos      NEDOS =    301   number of ions     NIONS =      2
   non local maximal  LDIM  =      4   non local SUM 2l+1 LMDIM =      8
   total plane-waves  NPLWV =  35840
   max r-space proj   IRMAX =      1   max aug-charges    IRDMAX=   4185
   dimension x,y,z NGX =    16 NGY =   16 NGZ =  140
   dimension x,y,z NGXF=    32 NGYF=   32 NGZF=  280
   support grid    NGXF=    32 NGYF=   32 NGZF=  280
   ions per type =               2
 NGX,Y,Z   is equivalent  to a cutoff of  10.75, 10.75, 11.64 a.u.
 NGXF,Y,Z  is equivalent  to a cutoff of  21.49, 21.49, 23.27 a.u.


 I would recommend the setting:
   dimension x,y,z NGX =    16 NGY =   16 NGZ =  130
 SYSTEM =  unknown system                          
 POSCAR =  single layer graphene                   

 Startparameter for this run:
   NWRITE =      2    write-flag & timer
   PREC   = accura    normal or accurate (medium, high low for compatibility)
   ISTART =      0    job   : 0-new  1-cont  2-samecut
   ICHARG =      2    charge: 1-file 2-atom 10-const
   ISPIN  =      1    spin polarized calculation?
   LNONCOLLINEAR =      F non collinear calculations
   LSORBIT =      F    spin-orbit coupling
   INIWAV =      1    electr: 0-lowe 1-rand  2-diag
   LASPH  =      F    aspherical Exc in radial PAW
   METAGGA=      F    non-selfconsistent MetaGGA calc.

 Electronic Relaxation 1
   ENCUT  =  400.0 eV  29.40 Ry    5.42 a.u.   4.04  4.04 32.61*2*pi/ulx,y,z
   ENINI  =  400.0     initial cutoff
   ENAUG  =  644.9 eV  augmentation charge cutoff
   NELM   =     60;   NELMIN=  2; NELMDL=  0     # of ELM steps 
   EDIFF  = 0.1E-06   stopping-criterion for ELM
   LREAL  =      F    real-space projection
   NLSPLINE    = F    spline interpolate recip. space projectors
   LCOMPAT=      F    compatible to vasp.4.4
   GGA_COMPAT  = T    GGA compatible to vasp.4.4-vasp.4.6
   LMAXPAW     = -100 max onsite density
   LMAXMIX     =    2 max onsite mixed and CHGCAR
   VOSKOWN=      0    Vosko Wilk Nusair interpolation
   ROPT   =    0.00000
 Ionic relaxation
   EDIFFG = 0.1E-05   stopping-criterion for IOM
   NSW    =      0    number of steps for IOM
   NBLOCK =      1;   KBLOCK =      1    inner block; outer block 
   IBRION =     -1    ionic relax: 0-MD 1-quasi-New 2-CG
   NFREE  =      0    steps in history (QN), initial steepest desc. (CG)
   ISIF   =      2    stress and relaxation
   IWAVPR =     10    prediction:  0-non 1-charg 2-wave 3-comb
   ISYM   =      2    0-nonsym 1-usesym 2-fastsym
   LCORR  =      T    Harris-Foulkes like correction to forces

   POTIM  = 0.5000    time-step for ionic-motion
   TEIN   =    0.0    initial temperature
   TEBEG  =    0.0;   TEEND  =   0.0 temperature during run
   SMASS  =  -3.00    Nose mass-parameter (am)
   estimated Nose-frequenzy (Omega)   =  0.10E-29 period in steps =****** mass=  -0.140E-27a.u.
   SCALEE = 1.0000    scale energy and forces
   NPACO  =    256;   APACO  = 16.0  distance and # of slots for P.C.
   PSTRESS=    0.0 pullay stress

  Mass of Ions in am
   POMASS =  12.01
  Ionic Valenz
   ZVAL   =   4.00
  Atomic Wigner-Seitz radii
   RWIGS  =  -1.00
  virtual crystal weights 
   VCA    =   1.00
   NELECT =       8.0000    total number of electrons
   NUPDOWN=      -1.0000    fix difference up-down

 DOS related values:
   EMIN   =  10.00;   EMAX   =-10.00  energy-range for DOS
   EFERMI =   0.00
   ISMEAR =     1;   SIGMA  =   0.20  broadening in eV -4-tet -1-fermi 0-gaus

 Electronic relaxation 2 (details)
   IALGO  =     68    algorithm
   LDIAG  =      T    sub-space diagonalisation (order eigenvalues)
   LSUBROT=      F    optimize rotation matrix (better conditioning)
   TURBO    =      0    0=normal 1=particle mesh
   IRESTART =      0    0=no restart 2=restart with 2 vectors
   NREBOOT  =      0    no. of reboots
   NMIN     =      0    reboot dimension
   EREF     =   0.00    reference energy to select bands
   IMIX   =      4    mixing-type and parameters
     AMIX     =   0.40;   BMIX     =  1.00
     AMIX_MAG =   1.60;   BMIX_MAG =  1.00
     AMIN     =   0.10
     WC   =   100.;   INIMIX=   1;  MIXPRE=   1;  MAXMIX= -45

 Intra band minimization:
   WEIMIN = 0.0000     energy-eigenvalue tresh-hold
   EBREAK =  0.31E-08  absolut break condition
   DEPER  =   0.30     relativ break condition  

   TIME   =   0.40     timestep for ELM

  volume/ion in A,a.u.               =      53.05       358.00
  Fermi-wavevector in a.u.,A,eV,Ry     =   0.691620  1.306973  6.508195  0.478339
  Thomas-Fermi vector in A             =   1.773323

 Write flags
   LWAVE  =      T    write WAVECAR
   LCHARG =      T    write CHGCAR
   LVTOT  =      F    write LOCPOT, total local potential
   LVHAR  =      T    write LOCPOT, Hartree potential only
   LELF   =      F    write electronic localiz. function (ELF)
   LORBIT =      0    0 simple, 1 ext, 2 COOP (PROOUT)


 Dipole corrections
   LMONO  =      F    monopole corrections only (constant potential shift)
   LDIPOL =      T    correct potential (dipole corrections)
   IDIPOL =      3    1-x, 2-y, 3-z, 4-all directions 
   EPSILON=  1.0000000 bulk dielectric constant

 Exchange correlation treatment:
   GGA     =    --    GGA type
   LEXCH   =     8    internal setting for exchange type
   VOSKOWN=      0    Vosko Wilk Nusair interpolation
   LHFCALC =     F    Hartree Fock is set to
   LHFONE  =     F    Hartree Fock one center treatment
   AEXX    =    0.0000 exact exchange contribution

 Linear response parameters
   LEPSILON=     F    determine dielectric tensor
   LRPA    =     F    only Hartree local field effects (RPA)
   LNABLA  =     F    use nabla operator in PAW spheres
   LVEL    =     F    velocity operator in full k-point grid
   LINTERFAST=   F  fast interpolation
   KINTER  =     0    interpolate to denser k-point grid
   CSHIFT  =0.1000    complex shift for real part using Kramers Kronig
   OMEGAMAX=  -1.0    maximum frequency
   DEG_THRESHOLD= 0.2000000E-02 threshold for treating states as degnerate
   RTIME   =    0.100 relaxation time in fs

 Orbital magnetization related:
   ORBITALMAG=     F  switch on orbital magnetization
   LCHIMAG   =     F  perturbation theory with respect to B field
   DQ        =  0.001000  dq finite difference perturbation B field



--------------------------------------------------------------------------------------------------------


 Static calculation
 charge density and potential will be updated during run
 non-spin polarized calculation
 RMM-DIIS sequential band-by-band and
  variant of blocked Davidson during initial phase
 perform sub-space diagonalisation
    before iterative eigenvector-optimisation
 modified Broyden-mixing scheme, WC =      100.0
 initial mixing is a Kerker type mixing with AMIX =  0.4000 and BMIX =      1.0000
 Hartree-type preconditioning will be used
 using additional bands            4
 reciprocal scheme for non local part
 use partial core corrections
 calculate Harris-corrections to forces   (improved forces if not selfconsistent)
 use gradient corrections 
 use of overlap-Matrix (Vanderbilt PP)
 Methfessel and Paxton  Order N= 1 SIGMA  =   0.20


--------------------------------------------------------------------------------------------------------


  energy-cutoff  :      400.00
  volume of cell :      106.10
      direct lattice vectors                 reciprocal lattice vectors
     2.143412872 -1.237500000  0.000000000     0.233272836 -0.404040404  0.000000000
     2.143412872  1.237500000  0.000000000     0.233272836  0.404040404 -0.000000000
     0.000000000  0.000000000 20.000000000    -0.000000000  0.000000000  0.050000000

  length of vectors
     2.474999998  2.474999998 20.000000000     0.466545672  0.466545672  0.050000000



 k-points in units of 2pi/SCALE and weight: Gamma-centered k-grid                   
   0.00000000  0.00000000  0.00000000       0.001
   0.00777576 -0.01346801  0.00000000       0.007
   0.01555152 -0.02693603  0.00000000       0.007
   0.02332728 -0.04040404  0.00000000       0.007
   0.03110304 -0.05387205  0.00000000       0.007
   0.03887881 -0.06734007  0.00000000       0.007
   0.04665457 -0.08080808  0.00000000       0.007
   0.05443033 -0.09427609  0.00000000       0.007
   0.06220609 -0.10774411  0.00000000       0.007
   0.06998185 -0.12121212  0.00000000       0.007
   0.07775761 -0.13468013  0.00000000       0.007
   0.08553337 -0.14814815  0.00000000       0.007
   0.09330913 -0.16161616  0.00000000       0.007
   0.10108490 -0.17508418  0.00000000       0.007
   0.10886066 -0.18855219  0.00000000       0.007
   0.11663642 -0.20202020  0.00000000       0.003
   0.02332728 -0.01346801  0.00000000       0.007
   0.03110304 -0.02693603  0.00000000       0.013
   0.03887881 -0.04040404  0.00000000       0.013
   0.04665457 -0.05387205  0.00000000       0.013
   0.05443033 -0.06734007  0.00000000       0.013
   0.06220609 -0.08080808  0.00000000       0.013
   0.06998185 -0.09427609  0.00000000       0.013
   0.07775761 -0.10774411  0.00000000       0.013
   0.08553337 -0.12121212  0.00000000       0.013
   0.09330913 -0.13468013  0.00000000       0.013
   0.10108490 -0.14814815  0.00000000       0.013
   0.10886066 -0.16161616  0.00000000       0.013
   0.11663642 -0.17508418  0.00000000       0.013
   0.12441218 -0.18855219  0.00000000       0.013
   0.04665457 -0.02693603  0.00000000       0.007
   0.05443033 -0.04040404  0.00000000       0.013
   0.06220609 -0.05387205  0.00000000       0.013
   0.06998185 -0.06734007  0.00000000       0.013
   0.07775761 -0.08080808  0.00000000       0.013
   0.08553337 -0.09427609  0.00000000       0.013
   0.09330913 -0.10774411  0.00000000       0.013
   0.10108490 -0.12121212  0.00000000       0.013
   0.10886066 -0.13468013  0.00000000       0.013
   0.11663642 -0.14814815  0.00000000       0.013
   0.12441218 -0.16161616  0.00000000       0.013
   0.13218794 -0.17508418  0.00000000       0.013
  -0.09330913  0.21548822  0.00000000       0.007
   0.06998185 -0.04040404  0.00000000       0.007
   0.07775761 -0.05387205  0.00000000       0.013
   0.08553337 -0.06734007  0.00000000       0.013
   0.09330913 -0.08080808  0.00000000       0.013
   0.10108490 -0.09427609  0.00000000       0.013
   0.10886066 -0.10774411  0.00000000       0.013
   0.11663642 -0.12121212  0.00000000       0.013
   0.12441218 -0.13468013  0.00000000       0.013
   0.13218794 -0.14814815  0.00000000       0.013
   0.13996370 -0.16161616  0.00000000       0.013
  -0.08553337  0.22895623  0.00000000       0.013
   0.09330913 -0.05387205  0.00000000       0.007
   0.10108490 -0.06734007  0.00000000       0.013
   0.10886066 -0.08080808  0.00000000       0.013
   0.11663642 -0.09427609  0.00000000       0.013
   0.12441218 -0.10774411  0.00000000       0.013
   0.13218794 -0.12121212  0.00000000       0.013
   0.13996370 -0.13468013  0.00000000       0.013
   0.14773946 -0.14814815  0.00000000       0.013
  -0.07775761  0.24242424  0.00000000       0.013
  -0.06998185  0.22895623  0.00000000       0.007
   0.11663642 -0.06734007  0.00000000       0.007
   0.12441218 -0.08080808  0.00000000       0.013
   0.13218794 -0.09427609  0.00000000       0.013
   0.13996370 -0.10774411  0.00000000       0.013
   0.14773946 -0.12121212  0.00000000       0.013
   0.15551522 -0.13468013  0.00000000       0.013
  -0.06998185  0.25589226  0.00000000       0.013
  -0.06220609  0.24242424  0.00000000       0.013
   0.13996370 -0.08080808  0.00000000       0.007
   0.14773946 -0.09427609  0.00000000       0.013
   0.15551522 -0.10774411  0.00000000       0.013
   0.16329099 -0.12121212  0.00000000       0.013
  -0.06220609  0.26936027  0.00000000       0.013
  -0.05443033  0.25589226  0.00000000       0.013
  -0.04665457  0.24242424  0.00000000       0.007
   0.16329099 -0.09427609  0.00000000       0.007
   0.17106675 -0.10774411  0.00000000       0.013
  -0.05443033  0.28282828  0.00000000       0.013
  -0.04665457  0.26936027  0.00000000       0.013
  -0.03887881  0.25589226  0.00000000       0.013
  -0.04665457  0.29629630  0.00000000       0.007
  -0.03887881  0.28282828  0.00000000       0.013
  -0.03110304  0.26936027  0.00000000       0.013
  -0.02332728  0.25589226  0.00000000       0.007
  -0.02332728  0.28282828  0.00000000       0.007
  -0.01555152  0.26936027  0.00000000       0.013
   0.00000000  0.26936027  0.00000000       0.002

 k-points in reciprocal lattice and weights: Gamma-centered k-grid                   
   0.00000000  0.00000000  0.00000000       0.001
   0.03333333  0.00000000  0.00000000       0.007
   0.06666667  0.00000000  0.00000000       0.007
   0.10000000  0.00000000  0.00000000       0.007
   0.13333333  0.00000000  0.00000000       0.007
   0.16666667  0.00000000  0.00000000       0.007
   0.20000000  0.00000000  0.00000000       0.007
   0.23333333  0.00000000  0.00000000       0.007
   0.26666667  0.00000000  0.00000000       0.007
   0.30000000  0.00000000  0.00000000       0.007
   0.33333333  0.00000000  0.00000000       0.007
   0.36666667  0.00000000  0.00000000       0.007
   0.40000000  0.00000000  0.00000000       0.007
   0.43333333  0.00000000  0.00000000       0.007
   0.46666667  0.00000000  0.00000000       0.007
   0.50000000  0.00000000  0.00000000       0.003
   0.06666667  0.03333333  0.00000000       0.007
   0.10000000  0.03333333  0.00000000       0.013
   0.13333333  0.03333333  0.00000000       0.013
   0.16666667  0.03333333  0.00000000       0.013
   0.20000000  0.03333333  0.00000000       0.013
   0.23333333  0.03333333  0.00000000       0.013
   0.26666667  0.03333333  0.00000000       0.013
   0.30000000  0.03333333  0.00000000       0.013
   0.33333333  0.03333333  0.00000000       0.013
   0.36666667  0.03333333  0.00000000       0.013
   0.40000000  0.03333333  0.00000000       0.013
   0.43333333  0.03333333  0.00000000       0.013
   0.46666667  0.03333333  0.00000000       0.013
   0.50000000  0.03333333  0.00000000       0.013
   0.13333333  0.06666667  0.00000000       0.007
   0.16666667  0.06666667  0.00000000       0.013
   0.20000000  0.06666667  0.00000000       0.013
   0.23333333  0.06666667  0.00000000       0.013
   0.26666667  0.06666667  0.00000000       0.013
   0.30000000  0.06666667  0.00000000       0.013
   0.33333333  0.06666667  0.00000000       0.013
   0.36666667  0.06666667  0.00000000       0.013
   0.40000000  0.06666667  0.00000000       0.013
   0.43333333  0.06666667  0.00000000       0.013
   0.46666667  0.06666667  0.00000000       0.013
   0.50000000  0.06666667  0.00000000       0.013
  -0.46666667  0.06666667  0.00000000       0.007
   0.20000000  0.10000000  0.00000000       0.007
   0.23333333  0.10000000  0.00000000       0.013
   0.26666667  0.10000000  0.00000000       0.013
   0.30000000  0.10000000  0.00000000       0.013
   0.33333333  0.10000000  0.00000000       0.013
   0.36666667  0.10000000  0.00000000       0.013
   0.40000000  0.10000000  0.00000000       0.013
   0.43333333  0.10000000  0.00000000       0.013
   0.46666667  0.10000000  0.00000000       0.013
   0.50000000  0.10000000  0.00000000       0.013
  -0.46666667  0.10000000  0.00000000       0.013
   0.26666667  0.13333333  0.00000000       0.007
   0.30000000  0.13333333  0.00000000       0.013
   0.33333333  0.13333333  0.00000000       0.013
   0.36666667  0.13333333  0.00000000       0.013
   0.40000000  0.13333333  0.00000000       0.013
   0.43333333  0.13333333  0.00000000       0.013
   0.46666667  0.13333333  0.00000000       0.013
   0.50000000  0.13333333  0.00000000       0.013
  -0.46666667  0.13333333  0.00000000       0.013
  -0.43333333  0.13333333  0.00000000       0.007
   0.33333333  0.16666667  0.00000000       0.007
   0.36666667  0.16666667  0.00000000       0.013
   0.40000000  0.16666667  0.00000000       0.013
   0.43333333  0.16666667  0.00000000       0.013
   0.46666667  0.16666667  0.00000000       0.013
   0.50000000  0.16666667  0.00000000       0.013
  -0.46666667  0.16666667  0.00000000       0.013
  -0.43333333  0.16666667  0.00000000       0.013
   0.40000000  0.20000000  0.00000000       0.007
   0.43333333  0.20000000  0.00000000       0.013
   0.46666667  0.20000000  0.00000000       0.013
   0.50000000  0.20000000  0.00000000       0.013
  -0.46666667  0.20000000  0.00000000       0.013
  -0.43333333  0.20000000  0.00000000       0.013
  -0.40000000  0.20000000  0.00000000       0.007
   0.46666667  0.23333333  0.00000000       0.007
   0.50000000  0.23333333  0.00000000       0.013
  -0.46666667  0.23333333  0.00000000       0.013
  -0.43333333  0.23333333  0.00000000       0.013
  -0.40000000  0.23333333  0.00000000       0.013
  -0.46666667  0.26666667  0.00000000       0.007
  -0.43333333  0.26666667  0.00000000       0.013
  -0.40000000  0.26666667  0.00000000       0.013
  -0.36666667  0.26666667  0.00000000       0.007
  -0.40000000  0.30000000  0.00000000       0.007
  -0.36666667  0.30000000  0.00000000       0.013
  -0.33333333  0.33333333  0.00000000       0.002

 position of ions in fractional coordinates (direct lattice) 
   0.00000000  0.00000000  0.00000000
   0.33333333  0.33333333  0.00000000

 position of ions in cartesian coordinates  (Angst):
   0.00000000  0.00000000  0.00000000
   1.42894191  0.00000000  0.00000000



--------------------------------------------------------------------------------------------------------


 k-point  1 :   0.0000 0.0000 0.0000  plane waves:    1871
 k-point  2 :   0.0333 0.0000 0.0000  plane waves:    1865
 k-point  3 :   0.0667 0.0000 0.0000  plane waves:    1863
 k-point  4 :   0.1000 0.0000 0.0000  plane waves:    1871
 k-point  5 :   0.1333 0.0000 0.0000  plane waves:    1881
 k-point  6 :   0.1667 0.0000 0.0000  plane waves:    1891
 k-point  7 :   0.2000 0.0000 0.0000  plane waves:    1907
 k-point  8 :   0.2333 0.0000 0.0000  plane waves:    1919
 k-point  9 :   0.2667 0.0000 0.0000  plane waves:    1921
 k-point 10 :   0.3000 0.0000 0.0000  plane waves:    1923
 k-point 11 :   0.3333 0.0000 0.0000  plane waves:    1937
 k-point 12 :   0.3667 0.0000 0.0000  plane waves:    1931
 k-point 13 :   0.4000 0.0000 0.0000  plane waves:    1933
 k-point 14 :   0.4333 0.0000 0.0000  plane waves:    1931
 k-point 15 :   0.4667 0.0000 0.0000  plane waves:    1917
 k-point 16 :   0.5000 0.0000 0.0000  plane waves:    1910
 k-point 17 :   0.0667 0.0333 0.0000  plane waves:    1860
 k-point 18 :   0.1000 0.0333 0.0000  plane waves:    1859
 k-point 19 :   0.1333 0.0333 0.0000  plane waves:    1862
 k-point 20 :   0.1667 0.0333 0.0000  plane waves:    1885
 k-point 21 :   0.2000 0.0333 0.0000  plane waves:    1895
 k-point 22 :   0.2333 0.0333 0.0000  plane waves:    1908
 k-point 23 :   0.2667 0.0333 0.0000  plane waves:    1914
 k-point 24 :   0.3000 0.0333 0.0000  plane waves:    1918
 k-point 25 :   0.3333 0.0333 0.0000  plane waves:    1928
 k-point 26 :   0.3667 0.0333 0.0000  plane waves:    1932
 k-point 27 :   0.4000 0.0333 0.0000  plane waves:    1931
 k-point 28 :   0.4333 0.0333 0.0000  plane waves:    1931
 k-point 29 :   0.4667 0.0333 0.0000  plane waves:    1941
 k-point 30 :   0.5000 0.0333 0.0000  plane waves:    1935
 k-point 31 :   0.1333 0.0667 0.0000  plane waves:    1862
 k-point 32 :   0.1667 0.0667 0.0000  plane waves:    1873
 k-point 33 :   0.2000 0.0667 0.0000  plane waves:    1893
 k-point 34 :   0.2333 0.0667 0.0000  plane waves:    1907
 k-point 35 :   0.2667 0.0667 0.0000  plane waves:    1913
 k-point 36 :   0.3000 0.0667 0.0000  plane waves:    1923
 k-point 37 :   0.3333 0.0667 0.0000  plane waves:    1929
 k-point 38 :   0.3667 0.0667 0.0000  plane waves:    1941
 k-point 39 :   0.4000 0.0667 0.0000  plane waves:    1945
 k-point 40 :   0.4333 0.0667 0.0000  plane waves:    1941
 k-point 41 :   0.4667 0.0667 0.0000  plane waves:    1951
 k-point 42 :   0.5000 0.0667 0.0000  plane waves:    1945
 k-point 43 :  -0.4667 0.0667 0.0000  plane waves:    1938
 k-point 44 :   0.2000 0.1000 0.0000  plane waves:    1888
 k-point 45 :   0.2333 0.1000 0.0000  plane waves:    1904
 k-point 46 :   0.2667 0.1000 0.0000  plane waves:    1920
 k-point 47 :   0.3000 0.1000 0.0000  plane waves:    1922
 k-point 48 :   0.3333 0.1000 0.0000  plane waves:    1931
 k-point 49 :   0.3667 0.1000 0.0000  plane waves:    1939
 k-point 50 :   0.4000 0.1000 0.0000  plane waves:    1941
 k-point 51 :   0.4333 0.1000 0.0000  plane waves:    1947
 k-point 52 :   0.4667 0.1000 0.0000  plane waves:    1945
 k-point 53 :   0.5000 0.1000 0.0000  plane waves:    1949
 k-point 54 :  -0.4667 0.1000 0.0000  plane waves:    1941
 k-point 55 :   0.2667 0.1333 0.0000  plane waves:    1918
 k-point 56 :   0.3000 0.1333 0.0000  plane waves:    1930
 k-point 57 :   0.3333 0.1333 0.0000  plane waves:    1930
 k-point 58 :   0.3667 0.1333 0.0000  plane waves:    1937
 k-point 59 :   0.4000 0.1333 0.0000  plane waves:    1939
 k-point 60 :   0.4333 0.1333 0.0000  plane waves:    1945
 k-point 61 :   0.4667 0.1333 0.0000  plane waves:    1945
 k-point 62 :   0.5000 0.1333 0.0000  plane waves:    1949
 k-point 63 :  -0.4667 0.1333 0.0000  plane waves:    1947
 k-point 64 :  -0.4333 0.1333 0.0000  plane waves:    1940
 k-point 65 :   0.3333 0.1667 0.0000  plane waves:    1928
 k-point 66 :   0.3667 0.1667 0.0000  plane waves:    1938
 k-point 67 :   0.4000 0.1667 0.0000  plane waves:    1936
 k-point 68 :   0.4333 0.1667 0.0000  plane waves:    1949
 k-point 69 :   0.4667 0.1667 0.0000  plane waves:    1953
 k-point 70 :   0.5000 0.1667 0.0000  plane waves:    1951
 k-point 71 :  -0.4667 0.1667 0.0000  plane waves:    1951
 k-point 72 :  -0.4333 0.1667 0.0000  plane waves:    1947
 k-point 73 :   0.4000 0.2000 0.0000  plane waves:    1938
 k-point 74 :   0.4333 0.2000 0.0000  plane waves:    1948
 k-point 75 :   0.4667 0.2000 0.0000  plane waves:    1936
 k-point 76 :   0.5000 0.2000 0.0000  plane waves:    1947
 k-point 77 :  -0.4667 0.2000 0.0000  plane waves:    1949
 k-point 78 :  -0.4333 0.2000 0.0000  plane waves:    1937
 k-point 79 :  -0.4000 0.2000 0.0000  plane waves:    1928
 k-point 80 :   0.4667 0.2333 0.0000  plane waves:    1948
 k-point 81 :   0.5000 0.2333 0.0000  plane waves:    1940
 k-point 82 :  -0.4667 0.2333 0.0000  plane waves:    1943
 k-point 83 :  -0.4333 0.2333 0.0000  plane waves:    1949
 k-point 84 :  -0.4000 0.2333 0.0000  plane waves:    1935
 k-point 85 :  -0.4667 0.2667 0.0000  plane waves:    1942
 k-point 86 :  -0.4333 0.2667 0.0000  plane waves:    1940
 k-point 87 :  -0.4000 0.2667 0.0000  plane waves:    1941
 k-point 88 :  -0.3667 0.2667 0.0000  plane waves:    1936
 k-point 89 :  -0.4000 0.3000 0.0000  plane waves:    1934
 k-point 90 :  -0.3667 0.3000 0.0000  plane waves:    1930
 k-point 91 :  -0.3333 0.3333 0.0000  plane waves:    1914

 maximum and minimum number of plane-waves per node :      1953     1859

 maximum number of plane-waves:      1953
 maximum index in each direction: 
   IXMAX=    4   IYMAX=    4   IZMAX=   32
   IXMIN=   -4   IYMIN=   -4   IZMIN=  -32

 WARNING: aliasing errors must be expected set NGX to  18 to avoid them
 WARNING: aliasing errors must be expected set NGY to  18 to avoid them
 NGZ is ok and might be reduce to 130
 aliasing errors are usually negligible using standard VASP settings
 and one can safely disregard these warnings

 serial   3D FFT for wavefunctions
 parallel 3D FFT for charge:
    minimum data exchange during FFTs selected (reduces bandwidth)


 total amount of memory used by VASP on root node    89461. kBytes
========================================================================

   base      :      30000. kBytes
   nonl-proj :      11436. kBytes
   fftplans  :       9820. kBytes
   grid      :      15265. kBytes
   one-center:          6. kBytes
   wavefun   :      22934. kBytes

     INWAV:  cpu time    0.0000: real time    0.0000
 Broyden mixing: mesh for mixing (old mesh)
   NGX =  9   NGY =  9   NGZ = 65
  (NGX  = 32   NGY  = 32   NGZ  =280)
  gives a total of   5265 points

 initial charge density was supplied:
 charge density of overlapping atoms calculated
 number of electron       8.0000000 magnetization 
 keeping initial charge density in first step


--------------------------------------------------------------------------------------------------------


 Maximum index for augmentation-charges         3871 (set IRDMAX)


--------------------------------------------------------------------------------------------------------


 First call to EWALD:  gamma=   0.374
 Maximum number of real-space cells 5x 5x 1
 Maximum number of reciprocal cells 2x 2x10

 FEWALD executed in parallel
    FEWALD:  cpu time    0.0073: real time    0.0009


----------------------------------------- Iteration    1(   1)  ---------------------------------------


    POTLOK:  cpu time    0.6337: real time    0.1567
    SETDIJ:  cpu time    0.0021: real time    0.0021
     EDDAV:  cpu time   32.2178: real time    4.0451
       DOS:  cpu time    0.0271: real time    0.0034
    --------------------------------------------
      LOOP:  cpu time   32.8880: real time    4.2083

 eigenvalue-minimisations  :  1688
 total energy-change (2. order) : 0.2681767E+02  (-0.2913710E+03)
 number of electron       8.0000000 magnetization 
 augmentation part        8.0000000 magnetization 

 DIPCOR: dipole corrections for dipol
 direction  3 min pos   141,
 dipolmoment           0.000000      0.000000     -0.000000 electrons x Angstroem
 Tr[quadrupol]        -4.098390

 energy correction for charged system         0.000000 eV
 dipol+quadrupol energy correction           -0.000000 eV
 added-field ion interaction          0.000000 eV  (added to PSCEN)


 Free energy of the ion-electron system (eV)
  ---------------------------------------------------
  alpha Z        PSCENC =         3.09698544
  Ewald energy   TEWEN  =      1283.42325059
  -Hartree energ DENC   =     -1496.64196973
  -exchange      EXHF   =         0.00000000
  -V(xc)+E(xc)   XCENC  =        26.31087813
  PAW double counting   =       217.04409276     -218.18290438
  entropy T*S    EENTRO =         0.00189187
  eigenvalues    EBANDS =       -82.48900001
  atomic energy  EATOM  =       294.25444774
  Solvation  Ediel_sol  =         0.00000000
  ---------------------------------------------------
  free energy    TOTEN  =        26.81767242 eV

  energy without entropy =       26.81578055  energy(sigma->0) =       26.81704180


--------------------------------------------------------------------------------------------------------




----------------------------------------- Iteration    1(   2)  ---------------------------------------


     EDDAV:  cpu time   38.0370: real time    4.7638
       DOS:  cpu time    0.0274: real time    0.0034
    --------------------------------------------
      LOOP:  cpu time   38.0681: real time    4.7677

 eigenvalue-minimisations  :  2096
 total energy-change (2. order) :-0.4373359E+02  (-0.3783187E+02)
 number of electron       8.0000000 magnetization 
 augmentation part        8.0000000 magnetization 

 DIPCOR: dipole corrections for dipol
 direction  3 min pos   141,
 dipolmoment           0.000000      0.000000     -0.000000 electrons x Angstroem
 Tr[quadrupol]        -4.098390

 energy correction for charged system         0.000000 eV
 dipol+quadrupol energy correction           -0.000000 eV
 added-field ion interaction          0.000000 eV  (added to PSCEN)


 Free energy of the ion-electron system (eV)
  ---------------------------------------------------
  alpha Z        PSCENC =         3.09698544
  Ewald energy   TEWEN  =      1283.42325059
  -Hartree energ DENC   =     -1496.64196973
  -exchange      EXHF   =         0.00000000
  -V(xc)+E(xc)   XCENC  =        26.31087813
  PAW double counting   =       217.04409276     -218.18290438
  entropy T*S    EENTRO =        -0.00063148
  eigenvalues    EBANDS =      -126.22006779
  atomic energy  EATOM  =       294.25444774
  Solvation  Ediel_sol  =         0.00000000
  ---------------------------------------------------
  free energy    TOTEN  =       -16.91591871 eV

  energy without entropy =      -16.91528723  energy(sigma->0) =      -16.91570822


--------------------------------------------------------------------------------------------------------




----------------------------------------- Iteration    1(   3)  ---------------------------------------


     EDDAV:  cpu time   39.0543: real time    4.8889
       DOS:  cpu time    0.0280: real time    0.0035
    --------------------------------------------
      LOOP:  cpu time   39.0853: real time    4.8928

 eigenvalue-minimisations  :  2160
 total energy-change (2. order) :-0.2744111E+01  (-0.2670203E+01)
 number of electron       8.0000000 magnetization 
 augmentation part        8.0000000 magnetization 

 DIPCOR: dipole corrections for dipol
 direction  3 min pos   141,
 dipolmoment           0.000000      0.000000     -0.000000 electrons x Angstroem
 Tr[quadrupol]        -4.098390

 energy correction for charged system         0.000000 eV
 dipol+quadrupol energy correction           -0.000000 eV
 added-field ion interaction          0.000000 eV  (added to PSCEN)


 Free energy of the ion-electron system (eV)
  ---------------------------------------------------
  alpha Z        PSCENC =         3.09698544
  Ewald energy   TEWEN  =      1283.42325059
  -Hartree energ DENC   =     -1496.64196973
  -exchange      EXHF   =         0.00000000
  -V(xc)+E(xc)   XCENC  =        26.31087813
  PAW double counting   =       217.04409276     -218.18290438
  entropy T*S    EENTRO =        -0.00022594
  eigenvalues    EBANDS =      -128.96458473
  atomic energy  EATOM  =       294.25444774
  Solvation  Ediel_sol  =         0.00000000
  ---------------------------------------------------
  free energy    TOTEN  =       -19.66003012 eV

  energy without entropy =      -19.65980417  energy(sigma->0) =      -19.65995480


--------------------------------------------------------------------------------------------------------




----------------------------------------- Iteration    1(   4)  ---------------------------------------


     EDDAV:  cpu time   42.3078: real time    5.3080
       DOS:  cpu time    0.0276: real time    0.0035
    --------------------------------------------
      LOOP:  cpu time   42.3380: real time    5.3118

 eigenvalue-minimisations  :  2352
 total energy-change (2. order) :-0.2320220E-01  (-0.2320220E-01)
 number of electron       8.0000000 magnetization 
 augmentation part        8.0000000 magnetization 

 DIPCOR: dipole corrections for dipol
 direction  3 min pos   141,
 dipolmoment           0.000000      0.000000     -0.000000 electrons x Angstroem
 Tr[quadrupol]        -4.098390

 energy correction for charged system         0.000000 eV
 dipol+quadrupol energy correction           -0.000000 eV
 added-field ion interaction          0.000000 eV  (added to PSCEN)


 Free energy of the ion-electron system (eV)
  ---------------------------------------------------
  alpha Z        PSCENC =         3.09698544
  Ewald energy   TEWEN  =      1283.42325059
  -Hartree energ DENC   =     -1496.64196973
  -exchange      EXHF   =         0.00000000
  -V(xc)+E(xc)   XCENC  =        26.31087813
  PAW double counting   =       217.04409276     -218.18290438
  entropy T*S    EENTRO =        -0.00022595
  eigenvalues    EBANDS =      -128.98778693
  atomic energy  EATOM  =       294.25444774
  Solvation  Ediel_sol  =         0.00000000
  ---------------------------------------------------
  free energy    TOTEN  =       -19.68323232 eV

  energy without entropy =      -19.68300637  energy(sigma->0) =      -19.68315700


--------------------------------------------------------------------------------------------------------




----------------------------------------- Iteration    1(   5)  ---------------------------------------


     EDDAV:  cpu time   39.7025: real time    4.9759
       DOS:  cpu time    0.0280: real time    0.0035
    CHARGE:  cpu time    0.6719: real time    0.1871
    MIXING:  cpu time    0.0030: real time    0.0030
    --------------------------------------------
      LOOP:  cpu time   40.4082: real time    5.1699

 eigenvalue-minimisations  :  2192
 total energy-change (2. order) :-0.1529550E-03  (-0.1529547E-03)
 number of electron       8.0000000 magnetization 
 augmentation part        0.2092942 magnetization 

 DIPCOR: dipole corrections for dipol
 direction  3 min pos   141,
 dipolmoment           0.000000      0.000000     -0.000000 electrons x Angstroem
 Tr[quadrupol]        -4.098390

 energy correction for charged system         0.000000 eV
 dipol+quadrupol energy correction           -0.000000 eV
 added-field ion interaction          0.000000 eV  (added to PSCEN)


 Broyden mixing:
  rms(total) = 0.62541E+00    rms(broyden)= 0.62535E+00
  rms(prec ) = 0.66795E+00
  weight for this iteration     100.00

 Free energy of the ion-electron system (eV)
  ---------------------------------------------------
  alpha Z        PSCENC =         3.09698544
  Ewald energy   TEWEN  =      1283.42325059
  -Hartree energ DENC   =     -1496.64196973
  -exchange      EXHF   =         0.00000000
  -V(xc)+E(xc)   XCENC  =        26.31087813
  PAW double counting   =       217.04409276     -218.18290438
  entropy T*S    EENTRO =        -0.00022595
  eigenvalues    EBANDS =      -128.98793989
  atomic energy  EATOM  =       294.25444774
  Solvation  Ediel_sol  =         0.00000000
  ---------------------------------------------------
  free energy    TOTEN  =       -19.68338527 eV

  energy without entropy =      -19.68315933  energy(sigma->0) =      -19.68330996


--------------------------------------------------------------------------------------------------------




----------------------------------------- Iteration    1(   6)  ---------------------------------------


    POTLOK:  cpu time    0.0936: real time    0.0936
    SETDIJ:  cpu time    0.0021: real time    0.0021
    EDDIAG:  cpu time    6.4772: real time    0.9372
  RMM-DIIS:  cpu time   31.8421: real time    3.9972
    ORTHCH:  cpu time    0.1326: real time    0.0166
       DOS:  cpu time    0.0288: real time    0.0036
    CHARGE:  cpu time    0.6727: real time    0.1874
    MIXING:  cpu time    0.0039: real time    0.0092
    --------------------------------------------
      LOOP:  cpu time   39.2541: real time    5.2477

 eigenvalue-minimisations  :  1770
 total energy-change (2. order) : 0.8716561E+00  (-0.6638459E-01)
 number of electron       8.0000000 magnetization 
 augmentation part        0.2006598 magnetization 

 DIPCOR: dipole corrections for dipol
 direction  3 min pos   132,
 dipolmoment           0.000000      0.000000      0.002934 electrons x Angstroem
 Tr[quadrupol]        -4.182073

 energy correction for charged system         0.000000 eV
 dipol+quadrupol energy correction           -0.000007 eV
 added-field ion interaction         -0.025731 eV  (added to PSCEN)


 Broyden mixing:
  rms(total) = 0.36828E+00    rms(broyden)= 0.36826E+00
  rms(prec ) = 0.39038E+00
  weight for this iteration     100.00

 eigenvalues of (default mixing * dielectric matrix)
  average eigenvalue GAMMA=   2.2572
  2.2572

 Free energy of the ion-electron system (eV)
  ---------------------------------------------------
  alpha Z        PSCENC =         3.07124745
  Ewald energy   TEWEN  =      1283.42325059
  -Hartree energ DENC   =     -1507.57075654
  -exchange      EXHF   =         0.00000000
  -V(xc)+E(xc)   XCENC  =        26.78170507
  PAW double counting   =       400.95901888     -402.23638290
  entropy T*S    EENTRO =        -0.00022963
  eigenvalues    EBANDS =      -117.49402984
  atomic energy  EATOM  =       294.25444774
  Solvation  Ediel_sol  =         0.00000000
  ---------------------------------------------------
  free energy    TOTEN  =       -18.81172919 eV

  energy without entropy =      -18.81149955  energy(sigma->0) =      -18.81165264


--------------------------------------------------------------------------------------------------------




----------------------------------------- Iteration    1(   7)  ---------------------------------------


    POTLOK:  cpu time    0.0941: real time    0.0941
    SETDIJ:  cpu time    0.0021: real time    0.0021
    EDDIAG:  cpu time    6.4447: real time    0.9248
  RMM-DIIS:  cpu time   31.7904: real time    3.9792
    ORTHCH:  cpu time    0.1317: real time    0.0165
       DOS:  cpu time    0.0275: real time    0.0037
    CHARGE:  cpu time    0.6852: real time    0.1967
    MIXING:  cpu time    0.0031: real time    0.0031
    --------------------------------------------
      LOOP:  cpu time   39.1799: real time    5.2207

 eigenvalue-minimisations  :  1801
 total energy-change (2. order) : 0.3401795E+00  (-0.1098280E+00)
 number of electron       8.0000000 magnetization 
 augmentation part        0.1897318 magnetization 

 DIPCOR: dipole corrections for dipol
 direction  3 min pos   126,
 dipolmoment           0.000000      0.000000      0.011904 electrons x Angstroem
 Tr[quadrupol]        -4.324642

 energy correction for charged system         0.000000 eV
 dipol+quadrupol energy correction           -0.000121 eV
 added-field ion interaction         -0.174028 eV  (added to PSCEN)


 Broyden mixing:
  rms(total) = 0.88937E-01    rms(broyden)= 0.88834E-01
  rms(prec ) = 0.92888E-01
  weight for this iteration     100.00

 eigenvalues of (default mixing * dielectric matrix)
  average eigenvalue GAMMA=   2.3488
  2.3488  2.3488

 Free energy of the ion-electron system (eV)
  ---------------------------------------------------
  alpha Z        PSCENC =         2.92283709
  Ewald energy   TEWEN  =      1283.42325059
  -Hartree energ DENC   =     -1522.92397089
  -exchange      EXHF   =         0.00000000
  -V(xc)+E(xc)   XCENC  =        27.43898846
  PAW double counting   =       763.98064266     -765.38779117
  entropy T*S    EENTRO =        -0.00023322
  eigenvalues    EBANDS =      -102.17972099
  atomic energy  EATOM  =       294.25444774
  Solvation  Ediel_sol  =         0.00000000
  ---------------------------------------------------
  free energy    TOTEN  =       -18.47154972 eV

  energy without entropy =      -18.47131650  energy(sigma->0) =      -18.47147198


--------------------------------------------------------------------------------------------------------




----------------------------------------- Iteration    1(   8)  ---------------------------------------


    POTLOK:  cpu time    0.0939: real time    0.0939
    SETDIJ:  cpu time    0.0022: real time    0.0022
    EDDIAG:  cpu time    6.4556: real time    0.9265
  RMM-DIIS:  cpu time   35.5447: real time    4.4498
    ORTHCH:  cpu time    0.1321: real time    0.0165
       DOS:  cpu time    0.0288: real time    0.0036
    CHARGE:  cpu time    0.6928: real time    0.2037
    MIXING:  cpu time    0.0032: real time    0.0032
    --------------------------------------------
      LOOP:  cpu time   42.9543: real time    5.6996

 eigenvalue-minimisations  :  2037
 total energy-change (2. order) : 0.7670398E-02  (-0.1667182E-02)
 number of electron       8.0000000 magnetization 
 augmentation part        0.1894075 magnetization 

 DIPCOR: dipole corrections for dipol
 direction  3 min pos   124,
 dipolmoment           0.000000      0.000000      0.015514 electrons x Angstroem
 Tr[quadrupol]        -4.395022

 energy correction for charged system         0.000000 eV
 dipol+quadrupol energy correction           -0.000205 eV
 added-field ion interaction         -0.257042 eV  (added to PSCEN)


 Broyden mixing:
  rms(total) = 0.84818E-02    rms(broyden)= 0.84377E-02
  rms(prec ) = 0.16566E-01
  weight for this iteration     100.00

 eigenvalues of (default mixing * dielectric matrix)
  average eigenvalue GAMMA=   2.0436
  1.3062  2.5874  2.2371

 Free energy of the ion-electron system (eV)
  ---------------------------------------------------
  alpha Z        PSCENC =         2.83973854
  Ewald energy   TEWEN  =      1283.42325059
  -Hartree energ DENC   =     -1524.82114421
  -exchange      EXHF   =         0.00000000
  -V(xc)+E(xc)   XCENC  =        27.42948537
  PAW double counting   =       840.01152285     -841.35767891
  entropy T*S    EENTRO =        -0.00023295
  eigenvalues    EBANDS =      -100.24326835
  atomic energy  EATOM  =       294.25444774
  Solvation  Ediel_sol  =         0.00000000
  ---------------------------------------------------
  free energy    TOTEN  =       -18.46387932 eV

  energy without entropy =      -18.46364637  energy(sigma->0) =      -18.46380167


--------------------------------------------------------------------------------------------------------




----------------------------------------- Iteration    1(   9)  ---------------------------------------


    POTLOK:  cpu time    0.0946: real time    0.0946
    SETDIJ:  cpu time    0.0021: real time    0.0021
    EDDIAG:  cpu time    6.4490: real time    0.9255
  RMM-DIIS:  cpu time   37.2505: real time    4.7239
    ORTHCH:  cpu time    0.1392: real time    0.0175
       DOS:  cpu time    0.0278: real time    0.0036
    CHARGE:  cpu time    0.6847: real time    0.2075
    MIXING:  cpu time    0.0032: real time    0.0032
    --------------------------------------------
      LOOP:  cpu time   44.6522: real time    5.9782

 eigenvalue-minimisations  :  2042
 total energy-change (2. order) : 0.1173323E-02  (-0.1223439E-03)
 number of electron       8.0000000 magnetization 
 augmentation part        0.1891054 magnetization 

 DIPCOR: dipole corrections for dipol
 direction  3 min pos   124,
 dipolmoment           0.000000      0.000000      0.015493 electrons x Angstroem
 Tr[quadrupol]        -4.425252

 energy correction for charged system         0.000000 eV
 dipol+quadrupol energy correction           -0.000205 eV
 added-field ion interaction         -0.256681 eV  (added to PSCEN)


 Broyden mixing:
  rms(total) = 0.62927E-02    rms(broyden)= 0.62874E-02
  rms(prec ) = 0.12862E-01
  weight for this iteration     100.00

 eigenvalues of (default mixing * dielectric matrix)
  average eigenvalue GAMMA=   2.2104
  0.9864  2.8457  2.8457  2.1636

 Free energy of the ion-electron system (eV)
  ---------------------------------------------------
  alpha Z        PSCENC =         2.84010006
  Ewald energy   TEWEN  =      1283.42325059
  -Hartree energ DENC   =     -1525.94469207
  -exchange      EXHF   =         0.00000000
  -V(xc)+E(xc)   XCENC  =        27.44735093
  PAW double counting   =       848.01391018     -849.36008631
  entropy T*S    EENTRO =        -0.00023302
  eigenvalues    EBANDS =       -99.13675411
  atomic energy  EATOM  =       294.25444774
  Solvation  Ediel_sol  =         0.00000000
  ---------------------------------------------------
  free energy    TOTEN  =       -18.46270600 eV

  energy without entropy =      -18.46247298  energy(sigma->0) =      -18.46262832


--------------------------------------------------------------------------------------------------------




----------------------------------------- Iteration    1(  10)  ---------------------------------------


    POTLOK:  cpu time    0.0970: real time    0.0970
    SETDIJ:  cpu time    0.0022: real time    0.0021
    EDDIAG:  cpu time    3.1537: real time    0.4547
  RMM-DIIS:  cpu time   32.9484: real time    4.1357
    ORTHCH:  cpu time    0.1332: real time    0.0167
       DOS:  cpu time    0.0285: real time    0.0036
    CHARGE:  cpu time    0.6929: real time    0.2051
    MIXING:  cpu time    0.0033: real time    0.0033
    --------------------------------------------
      LOOP:  cpu time   37.0602: real time    4.9185

 eigenvalue-minimisations  :  1849
 total energy-change (2. order) : 0.1141531E-02  (-0.2174991E-03)
 number of electron       8.0000000 magnetization 
 augmentation part        0.1888073 magnetization 

 DIPCOR: dipole corrections for dipol
 direction  3 min pos   141,
 dipolmoment           0.000000      0.000000      0.000000 electrons x Angstroem
 Tr[quadrupol]        -4.526379

 energy correction for charged system         0.000000 eV
 dipol+quadrupol energy correction           -0.000000 eV
 added-field ion interaction          0.000000 eV  (added to PSCEN)


 Broyden mixing:
  rms(total) = 0.48083E-02    rms(broyden)= 0.48050E-02
  rms(prec ) = 0.65092E-02
  weight for this iteration     100.00

 eigenvalues of (default mixing * dielectric matrix)
  average eigenvalue GAMMA=   2.2107
  4.1028  2.2562  2.2562  1.0159  1.4222

 Free energy of the ion-electron system (eV)
  ---------------------------------------------------
  alpha Z        PSCENC =         3.09698544
  Ewald energy   TEWEN  =      1283.42325059
  -Hartree energ DENC   =     -1528.72792846
  -exchange      EXHF   =         0.00000000
  -V(xc)+E(xc)   XCENC  =        27.47474820
  PAW double counting   =       838.63892025     -839.98889148
  entropy T*S    EENTRO =        -0.00023313
  eigenvalues    EBANDS =       -96.63286363
  atomic energy  EATOM  =       294.25444774
  Solvation  Ediel_sol  =         0.00000000
  ---------------------------------------------------
  free energy    TOTEN  =       -18.46156447 eV

  energy without entropy =      -18.46133134  energy(sigma->0) =      -18.46148676


--------------------------------------------------------------------------------------------------------




----------------------------------------- Iteration    1(  11)  ---------------------------------------


    POTLOK:  cpu time    0.0953: real time    0.0953
    SETDIJ:  cpu time    0.0021: real time    0.0021
    EDDIAG:  cpu time    6.4951: real time    0.9322
  RMM-DIIS:  cpu time   33.0847: real time    4.1393
    ORTHCH:  cpu time    0.1353: real time    0.0169
       DOS:  cpu time    0.0283: real time    0.0035
    CHARGE:  cpu time    0.6917: real time    0.2018
    MIXING:  cpu time    0.0033: real time    0.0033
    --------------------------------------------
      LOOP:  cpu time   40.5368: real time    5.3947

 eigenvalue-minimisations  :  1877
 total energy-change (2. order) : 0.1697324E-03  (-0.2792692E-04)
 number of electron       8.0000000 magnetization 
 augmentation part        0.1887723 magnetization 

 DIPCOR: dipole corrections for dipol
 direction  3 min pos   149,
 dipolmoment           0.000000      0.000000     -0.005607 electrons x Angstroem
 Tr[quadrupol]        -4.548271

 energy correction for charged system         0.000000 eV
 dipol+quadrupol energy correction           -0.000027 eV
 added-field ion interaction         -0.043712 eV  (added to PSCEN)


 Broyden mixing:
  rms(total) = 0.34505E-02    rms(broyden)= 0.34501E-02
  rms(prec ) = 0.45418E-02
  weight for this iteration     100.00

 eigenvalues of (default mixing * dielectric matrix)
  average eigenvalue GAMMA=   2.6185
  6.1289  2.9924  2.4707  2.1598  0.9797  0.9797

 Free energy of the ion-electron system (eV)
  ---------------------------------------------------
  alpha Z        PSCENC =         3.05324617
  Ewald energy   TEWEN  =      1283.42325059
  -Hartree energ DENC   =     -1529.42475076
  -exchange      EXHF   =         0.00000000
  -V(xc)+E(xc)   XCENC  =        27.47833111
  PAW double counting   =       845.68812289     -847.03353418
  entropy T*S    EENTRO =        -0.00023312
  eigenvalues    EBANDS =       -95.90027518
  atomic energy  EATOM  =       294.25444774
  Solvation  Ediel_sol  =         0.00000000
  ---------------------------------------------------
  free energy    TOTEN  =       -18.46139473 eV

  energy without entropy =      -18.46116161  energy(sigma->0) =      -18.46131703


--------------------------------------------------------------------------------------------------------




----------------------------------------- Iteration    1(  12)  ---------------------------------------


    POTLOK:  cpu time    0.0926: real time    0.0927
    SETDIJ:  cpu time    0.0021: real time    0.0021
    EDDIAG:  cpu time    3.1709: real time    0.4572
  RMM-DIIS:  cpu time   30.2082: real time    3.7818
    ORTHCH:  cpu time    0.1339: real time    0.0167
       DOS:  cpu time    0.0290: real time    0.0036
    CHARGE:  cpu time    0.6920: real time    0.2014
    MIXING:  cpu time    0.0034: real time    0.0034
    --------------------------------------------
      LOOP:  cpu time   34.3331: real time    4.5592

 eigenvalue-minimisations  :  1699
 total energy-change (2. order) :-0.1132319E-02  (-0.1878225E-04)
 number of electron       8.0000000 magnetization 
 augmentation part        0.1886914 magnetization 

 DIPCOR: dipole corrections for dipol
 direction  3 min pos   151,
 dipolmoment           0.000000      0.000000     -0.003519 electrons x Angstroem
 Tr[quadrupol]        -4.576064

 energy correction for charged system         0.000000 eV
 dipol+quadrupol energy correction           -0.000011 eV
 added-field ion interaction         -0.034295 eV  (added to PSCEN)


 Broyden mixing:
  rms(total) = 0.15764E-02    rms(broyden)= 0.15759E-02
  rms(prec ) = 0.19391E-02
  weight for this iteration     100.00

 eigenvalues of (default mixing * dielectric matrix)
  average eigenvalue GAMMA=   2.7133
  6.4711  3.5347  2.5536  2.5536  1.9579  0.9611  0.9611

 Free energy of the ion-electron system (eV)
  ---------------------------------------------------
  alpha Z        PSCENC =         3.06267959
  Ewald energy   TEWEN  =      1283.42325059
  -Hartree energ DENC   =     -1530.14195980
  -exchange      EXHF   =         0.00000000
  -V(xc)+E(xc)   XCENC  =        27.47962534
  PAW double counting   =       841.93120223     -843.27777403
  entropy T*S    EENTRO =        -0.00023314
  eigenvalues    EBANDS =       -95.19376558
  atomic energy  EATOM  =       294.25444774
  Solvation  Ediel_sol  =         0.00000000
  ---------------------------------------------------
  free energy    TOTEN  =       -18.46252705 eV

  energy without entropy =      -18.46229391  energy(sigma->0) =      -18.46244934


--------------------------------------------------------------------------------------------------------




----------------------------------------- Iteration    1(  13)  ---------------------------------------


    POTLOK:  cpu time    0.0941: real time    0.0941
    SETDIJ:  cpu time    0.0021: real time    0.0021
    EDDIAG:  cpu time    6.4589: real time    0.9269
  RMM-DIIS:  cpu time   30.3579: real time    3.7979
    ORTHCH:  cpu time    0.1338: real time    0.0167
       DOS:  cpu time    0.0284: real time    0.0036
    CHARGE:  cpu time    0.6927: real time    0.2018
    MIXING:  cpu time    0.0034: real time    0.0034
    --------------------------------------------
      LOOP:  cpu time   37.7724: real time    5.0470

 eigenvalue-minimisations  :  1704
 total energy-change (2. order) :-0.5561178E-03  (-0.1384570E-04)
 number of electron       8.0000000 magnetization 
 augmentation part        0.1887281 magnetization 

 DIPCOR: dipole corrections for dipol
 direction  3 min pos   141,
 dipolmoment           0.000000      0.000000      0.000000 electrons x Angstroem
 Tr[quadrupol]        -4.579851

 energy correction for charged system         0.000000 eV
 dipol+quadrupol energy correction           -0.000000 eV
 added-field ion interaction          0.000000 eV  (added to PSCEN)


 Broyden mixing:
  rms(total) = 0.81494E-03    rms(broyden)= 0.81492E-03
  rms(prec ) = 0.10324E-02
  weight for this iteration     100.00

 eigenvalues of (default mixing * dielectric matrix)
  average eigenvalue GAMMA=   2.7975
  7.8306  4.3075  2.7585  2.2535  2.2535  1.0790  1.0007  0.8965

 Free energy of the ion-electron system (eV)
  ---------------------------------------------------
  alpha Z        PSCENC =         3.09698544
  Ewald energy   TEWEN  =      1283.42325059
  -Hartree energ DENC   =     -1530.06040926
  -exchange      EXHF   =         0.00000000
  -V(xc)+E(xc)   XCENC  =        27.47481259
  PAW double counting   =       842.38584978     -843.73121893
  entropy T*S    EENTRO =        -0.00023312
  eigenvalues    EBANDS =       -95.30656802
  atomic energy  EATOM  =       294.25444774
  Solvation  Ediel_sol  =         0.00000000
  ---------------------------------------------------
  free energy    TOTEN  =       -18.46308317 eV

  energy without entropy =      -18.46285005  energy(sigma->0) =      -18.46300547


--------------------------------------------------------------------------------------------------------




----------------------------------------- Iteration    1(  14)  ---------------------------------------


    POTLOK:  cpu time    0.0930: real time    0.0931
    SETDIJ:  cpu time    0.0021: real time    0.0021
    EDDIAG:  cpu time    6.4715: real time    0.9287
  RMM-DIIS:  cpu time   32.9724: real time    4.1251
    ORTHCH:  cpu time    0.1336: real time    0.0167
       DOS:  cpu time    0.0284: real time    0.0036
    CHARGE:  cpu time    0.6908: real time    0.2003
    MIXING:  cpu time    0.0036: real time    0.0036
    --------------------------------------------
      LOOP:  cpu time   40.3964: real time    5.3734

 eigenvalue-minimisations  :  1874
 total energy-change (2. order) :-0.1701856E-03  (-0.1742593E-05)
 number of electron       8.0000000 magnetization 
 augmentation part        0.1887143 magnetization 

 DIPCOR: dipole corrections for dipol
 direction  3 min pos   145,
 dipolmoment           0.000000      0.000000     -0.000155 electrons x Angstroem
 Tr[quadrupol]        -4.586868

 energy correction for charged system         0.000000 eV
 dipol+quadrupol energy correction           -0.000000 eV
 added-field ion interaction         -0.000605 eV  (added to PSCEN)


 Broyden mixing:
  rms(total) = 0.52590E-03    rms(broyden)= 0.52589E-03
  rms(prec ) = 0.57902E-03
  weight for this iteration     100.00

 eigenvalues of (default mixing * dielectric matrix)
  average eigenvalue GAMMA=   2.8181
  7.9358  4.7755  2.7445  2.7445  2.2362  1.9771  1.0373  0.9843  0.9280

 Free energy of the ion-electron system (eV)
  ---------------------------------------------------
  alpha Z        PSCENC =         3.09638084
  Ewald energy   TEWEN  =      1283.42325059
  -Hartree energ DENC   =     -1530.20932224
  -exchange      EXHF   =         0.00000000
  -V(xc)+E(xc)   XCENC  =        27.47640288
  PAW double counting   =       843.16658535     -844.51248163
  entropy T*S    EENTRO =        -0.00023313
  eigenvalues    EBANDS =       -95.15828376
  atomic energy  EATOM  =       294.25444774
  Solvation  Ediel_sol  =         0.00000000
  ---------------------------------------------------
  free energy    TOTEN  =       -18.46325336 eV

  energy without entropy =      -18.46302023  energy(sigma->0) =      -18.46317565


--------------------------------------------------------------------------------------------------------




----------------------------------------- Iteration    1(  15)  ---------------------------------------


    POTLOK:  cpu time    0.0963: real time    0.0963
    SETDIJ:  cpu time    0.0022: real time    0.0022
    EDDIAG:  cpu time    6.4559: real time    0.9264
  RMM-DIIS:  cpu time   33.7972: real time    4.2315
    ORTHCH:  cpu time    0.1335: real time    0.0167
       DOS:  cpu time    0.0281: real time    0.0035
    CHARGE:  cpu time    0.6924: real time    0.2018
    MIXING:  cpu time    0.0037: real time    0.0037
    --------------------------------------------
      LOOP:  cpu time   41.2103: real time    5.4825

 eigenvalue-minimisations  :  1917
 total energy-change (2. order) :-0.4895612E-04  (-0.5013776E-06)
 number of electron       8.0000000 magnetization 
 augmentation part        0.1886991 magnetization 

 DIPCOR: dipole corrections for dipol
 direction  3 min pos   130,
 dipolmoment           0.000000      0.000000     -0.000245 electrons x Angstroem
 Tr[quadrupol]        -4.591044

 energy correction for charged system         0.000000 eV
 dipol+quadrupol energy correction           -0.000000 eV
 added-field ion interaction          0.002629 eV  (added to PSCEN)


 Broyden mixing:
  rms(total) = 0.44968E-03    rms(broyden)= 0.44964E-03
  rms(prec ) = 0.47222E-03
  weight for this iteration     100.00

 eigenvalues of (default mixing * dielectric matrix)
  average eigenvalue GAMMA=   2.7888
  8.3685  5.0836  3.3314  2.6659  2.3122  2.2734  1.0370  0.9845  0.9157  0.9157

 Free energy of the ion-electron system (eV)
  ---------------------------------------------------
  alpha Z        PSCENC =         3.09961465
  Ewald energy   TEWEN  =      1283.42325059
  -Hartree energ DENC   =     -1530.24687121
  -exchange      EXHF   =         0.00000000
  -V(xc)+E(xc)   XCENC  =        27.47704039
  PAW double counting   =       842.34630790     -843.69274719
  entropy T*S    EENTRO =        -0.00023313
  eigenvalues    EBANDS =       -95.12411206
  atomic energy  EATOM  =       294.25444774
  Solvation  Ediel_sol  =         0.00000000
  ---------------------------------------------------
  free energy    TOTEN  =       -18.46330231 eV

  energy without entropy =      -18.46306918  energy(sigma->0) =      -18.46322460


--------------------------------------------------------------------------------------------------------




----------------------------------------- Iteration    1(  16)  ---------------------------------------


    POTLOK:  cpu time    0.0961: real time    0.0961
    SETDIJ:  cpu time    0.0021: real time    0.0021
    EDDIAG:  cpu time    6.4953: real time    0.9321
  RMM-DIIS:  cpu time   32.2368: real time    4.0330
    ORTHCH:  cpu time    0.1455: real time    0.0184
       DOS:  cpu time    0.0289: real time    0.0036
    CHARGE:  cpu time    0.6946: real time    0.2041
    MIXING:  cpu time    0.0039: real time    0.0039
    --------------------------------------------
      LOOP:  cpu time   39.7043: real time    5.2941

 eigenvalue-minimisations  :  1824
 total energy-change (2. order) :-0.8730968E-05  (-0.8967784E-07)
 number of electron       8.0000000 magnetization 
 augmentation part        0.1886998 magnetization 

 DIPCOR: dipole corrections for dipol
 direction  3 min pos   146,
 dipolmoment           0.000000      0.000000      0.000179 electrons x Angstroem
 Tr[quadrupol]        -4.592698

 energy correction for charged system         0.000000 eV
 dipol+quadrupol energy correction           -0.000000 eV
 added-field ion interaction          0.000873 eV  (added to PSCEN)


 Broyden mixing:
  rms(total) = 0.10246E-03    rms(broyden)= 0.10245E-03
  rms(prec ) = 0.13360E-03
  weight for this iteration     100.00

 eigenvalues of (default mixing * dielectric matrix)
  average eigenvalue GAMMA=   2.8594
  8.2953  5.6305  3.2160  3.2160  2.5470  2.2978  2.2978  0.9579  0.9579  1.0188
  1.0188

 Free energy of the ion-electron system (eV)
  ---------------------------------------------------
  alpha Z        PSCENC =         3.09785811
  Ewald energy   TEWEN  =      1283.42325059
  -Hartree energ DENC   =     -1530.25504258
  -exchange      EXHF   =         0.00000000
  -V(xc)+E(xc)   XCENC  =        27.47683250
  PAW double counting   =       842.63771647     -843.98384895
  entropy T*S    EENTRO =        -0.00023313
  eigenvalues    EBANDS =       -95.11429180
  atomic energy  EATOM  =       294.25444774
  Solvation  Ediel_sol  =         0.00000000
  ---------------------------------------------------
  free energy    TOTEN  =       -18.46331104 eV

  energy without entropy =      -18.46307791  energy(sigma->0) =      -18.46323333


--------------------------------------------------------------------------------------------------------




----------------------------------------- Iteration    1(  17)  ---------------------------------------


    POTLOK:  cpu time    0.0960: real time    0.0961
    SETDIJ:  cpu time    0.0022: real time    0.0022
    EDDIAG:  cpu time    6.4460: real time    0.9251
  RMM-DIIS:  cpu time   29.1745: real time    3.6665
    ORTHCH:  cpu time    0.1327: real time    0.0166
       DOS:  cpu time    0.0283: real time    0.0035
    CHARGE:  cpu time    0.6947: real time    0.2036
    MIXING:  cpu time    0.0040: real time    0.0040
    --------------------------------------------
      LOOP:  cpu time   36.5794: real time    4.9179

 eigenvalue-minimisations  :  1618
 total energy-change (2. order) :-0.5996282E-05  (-0.3951329E-07)
 number of electron       8.0000000 magnetization 
 augmentation part        0.1887022 magnetization 

 DIPCOR: dipole corrections for dipol
 direction  3 min pos   160,
 dipolmoment           0.000000      0.000000      0.000458 electrons x Angstroem
 Tr[quadrupol]        -4.596005

 energy correction for charged system         0.000000 eV
 dipol+quadrupol energy correction           -0.000000 eV
 added-field ion interaction          0.008490 eV  (added to PSCEN)


 Broyden mixing:
  rms(total) = 0.62006E-04    rms(broyden)= 0.62001E-04
  rms(prec ) = 0.74495E-04
  weight for this iteration     100.00

 eigenvalues of (default mixing * dielectric matrix)
  average eigenvalue GAMMA=   2.8285
  8.4573  5.3808  4.6245  2.9198  2.6814  2.2820  2.2820  1.3533  1.0212  1.0212
  0.9593  0.9593

 Free energy of the ion-electron system (eV)
  ---------------------------------------------------
  alpha Z        PSCENC =         3.10547517
  Ewald energy   TEWEN  =      1283.42325059
  -Hartree energ DENC   =     -1530.25836246
  -exchange      EXHF   =         0.00000000
  -V(xc)+E(xc)   XCENC  =        27.47661721
  PAW double counting   =       842.79155265     -844.13763172
  entropy T*S    EENTRO =        -0.00023313
  eigenvalues    EBANDS =       -95.11843310
  atomic energy  EATOM  =       294.25444774
  Solvation  Ediel_sol  =         0.00000000
  ---------------------------------------------------
  free energy    TOTEN  =       -18.46331704 eV

  energy without entropy =      -18.46308391  energy(sigma->0) =      -18.46323933


--------------------------------------------------------------------------------------------------------




[...]
      1     -20.6430      2.00000
      2      -9.9693      2.00000
      3      -8.6242      2.00000
      4      -8.4767      2.00000
      5       2.6706     -0.00000
      6       3.4755      0.00000
      7       4.2494      0.00000
      8       6.6843      0.00000

 k-point    57 :       0.3333    0.1333    0.0000
  band No.  band energies     occupation 
      1     -20.2605      2.00000
      2     -10.6969      2.00000
      3      -9.0470      2.00000
      4      -8.0366      2.00000
      5       3.1994      0.00000
      6       3.4518      0.00000
      7       4.0150      0.00000
      8       6.7000      0.00000

 k-point    58 :       0.3667    0.1333    0.0000
  band No.  band energies     occupation 
      1     -19.8300      2.00000
      2     -11.4736      2.00000
      3      -9.4108      2.00000
      4      -7.5479      2.00000
      5       2.6341     -0.00000
      6       3.7973      0.00000
      7       4.6128      0.00000
      8       6.6268      0.00000

 k-point    59 :       0.4000    0.1333    0.0000
  band No.  band energies     occupation 
      1     -19.3531      2.00000
      2     -12.2747      2.00000
      3      -9.7159      2.00000
      4      -7.0173      2.00000
      5       1.8017     -0.00000
      6       4.4631      0.00000
      7       5.2800      0.00000
      8       6.5209      0.00000

 k-point    60 :       0.4333    0.1333    0.0000
  band No.  band energies     occupation 
      1     -18.8325      2.00000
      2     -13.0799      2.00000
      3      -9.9644      2.00000
      4      -6.4567      2.00000
      5       0.9772     -0.00000
      6       5.1945      0.00000
      7       6.0111      0.00000
      8       6.4138      0.00000

 k-point    61 :       0.4667    0.1333    0.0000
  band No.  band energies     occupation 
      1     -18.2726      2.00000
      2     -13.8720      2.00000
      3     -10.1572      2.00000
      4      -5.8858      2.00000
      5       0.1914     -0.00000
      6       5.9755      0.00000
      7       6.3553      0.00000
      8       6.8001      0.00000

 k-point    62 :       0.5000    0.1333    0.0000
  band No.  band energies     occupation 
      1     -17.6839      2.00000
      2     -14.6319      2.00000
      3     -10.2948      2.00000
      4      -5.3456      2.00000
      5      -0.5083     -0.00000
      6       6.2458      0.00000
      7       6.8801      0.00000
      8       7.6324      0.00000

 k-point    63 :      -0.4667    0.1333    0.0000
  band No.  band energies     occupation 
      1     -17.1031      2.00000
      2     -15.3174      2.00000
      3     -10.3775      2.00000
      4      -4.9190      2.00000
      5      -1.0326     -0.00000
      6       6.2126      0.00000
      7       7.7893      0.00000
      8       8.4636      0.00000

 k-point    64 :      -0.4333    0.1333    0.0000
  band No.  band energies     occupation 
      1     -16.7598      2.00000
      2     -15.6958      2.00000
      3     -10.4050      2.00000
      4      -4.7463      2.00000
      5      -1.2380     -0.00000
      6       6.2003      0.00000
      7       8.6684      0.00000
      8       8.9967      0.00000

 k-point    65 :       0.3333    0.1667    0.0000
  band No.  band energies     occupation 
      1     -20.2860      2.00000
      2     -10.5381      2.00000
      3      -9.1665      2.00000
      4      -8.0648      2.00000
      5       3.1645      0.00000
      6       3.5316      0.00000
      7       3.9713      0.00000
      8       7.1508      0.00000

 k-point    66 :       0.3667    0.1667    0.0000
  band No.  band energies     occupation 
      1     -19.8806      2.00000
      2     -11.1782      2.00000
      3      -9.6487      2.00000
      4      -7.6025      2.00000
      5       2.7769      0.00000
      6       3.7276      0.00000
      7       4.5346      0.00000
      8       7.3708      0.00000

 k-point    67 :       0.4000    0.1667    0.0000
  band No.  band energies     occupation 
      1     -19.4284      2.00000
      2     -11.8846      2.00000
      3     -10.0474      2.00000
      4      -7.0942      2.00000
      5       1.9989     -0.00000
      6       4.3592      0.00000
      7       5.1641      0.00000
      8       7.3688      0.00000

 k-point    68 :       0.4333    0.1667    0.0000
  band No.  band energies     occupation 
      1     -18.9314      2.00000
      2     -12.6331      2.00000
      3     -10.3652      2.00000
      4      -6.5490      2.00000
      5       1.2120     -0.00000
      6       5.0579      0.00000
      7       5.8556      0.00000
      8       7.2871      0.00000

 k-point    69 :       0.4667    0.1667    0.0000
  band No.  band energies     occupation 
      1     -18.3932      2.00000
      2     -13.3964      2.00000
      3     -10.6104      2.00000
      4      -5.9801      2.00000
      5       0.4390     -0.00000
      6       5.8211      0.00000
      7       6.6013      0.00000
      8       7.1954      0.00000

 k-point    70 :       0.5000    0.1667    0.0000
  band No.  band energies     occupation 
      1     -17.8202      2.00000
      2     -14.1504      2.00000
      3     -10.7901      2.00000
      4      -5.4150      2.00000
      5      -0.2863     -0.00000
      6       6.6379      0.00000
      7       7.1360      0.00000
      8       7.3820      0.00000

 k-point    71 :      -0.4667    0.1667    0.0000
  band No.  band energies     occupation 
      1     -17.2310      2.00000
      2     -14.8657      2.00000
      3     -10.9081      2.00000
      4      -4.9098      2.00000
      5      -0.9016     -0.00000
      6       7.0449      0.00000
      7       7.5587      0.00000
      8       8.1432      0.00000

 k-point    72 :      -0.4333    0.1667    0.0000
  band No.  band energies     occupation 
      1     -16.7129      2.00000
      2     -15.4481      2.00000
      3     -10.9669      2.00000
      4      -4.5805      2.00000
      5      -1.2867     -0.00000
      6       7.0269      0.00000
      7       8.4750      0.00000
      8       8.7054      0.00000

 k-point    73 :       0.4000    0.2000    0.0000
  band No.  band energies     occupation 
      1     -19.4535      2.00000
      2     -11.7091      2.00000
      3     -10.2050      2.00000
      4      -7.1202      2.00000
      5       2.0684     -0.00000
      6       4.3245      0.00000
      7       7.9601      0.00000
      8       9.0589      0.00000

 k-point    74 :       0.4333    0.2000    0.0000
  band No.  band energies     occupation 
      1     -18.9811      2.00000
      2     -12.3127      2.00000
      3     -10.6669      2.00000
      4      -6.5961      2.00000
      5       1.3406     -0.00000
      6       4.9888      0.00000
      7       5.7760      0.00000
      8       8.1765      0.00000

 k-point    75 :       0.4667    0.2000    0.0000
  band No.  band energies     occupation 
      1     -18.4660      2.00000
      2     -12.9820      2.00000
      3     -11.0186      2.00000
      4      -6.0383      2.00000
      5       0.6081     -0.00000
      6       5.7188      0.00000
      7       6.4777      0.00000
      8       8.1351      0.00000

 k-point    76 :       0.5000    0.2000    0.0000
  band No.  band energies     occupation 
      1     -17.9131      2.00000
      2     -13.6868      2.00000
      3     -11.2729      2.00000
      4      -5.4667      2.00000
      5      -0.1071     -0.00000
      6       6.5107      0.00000
      7       7.2043      0.00000
      8       8.0546      0.00000

 k-point    77 :      -0.4667    0.2000    0.0000
  band No.  band energies     occupation 
      1     -17.3331      2.00000
      2     -14.3912      2.00000
      3     -11.4448      2.00000
      4      -4.9152      2.00000
      5      -0.7652     -0.00000
      6       7.3546      0.00000
      7       7.8865      0.00000
      8       7.9990      0.00000

 k-point    78 :      -0.4333    0.2000    0.0000
  band No.  band energies     occupation 
      1     -16.7620      2.00000
      2     -15.0423      2.00000
      3     -11.5446      2.00000
      4      -4.4640      2.00000
      5      -1.2813     -0.00000
      6       7.9167      0.00000
      7       8.2903      0.00000
      8       8.3649      0.00000

 k-point    79 :      -0.4000    0.2000    0.0000
  band No.  band energies     occupation 
      1     -16.4236      2.00000
      2     -15.4082      2.00000
      3     -11.5773      2.00000
      4      -4.2735      2.00000
      5      -1.4934     -0.00000
      6       7.9166      0.00000
      7       8.5184      0.00000
      8       9.0913      0.00000

 k-point    80 :       0.4667    0.2333    0.0000
  band No.  band energies     occupation 
      1     -18.4903      2.00000
      2     -12.7915      2.00000
      3     -11.2088      2.00000
      4      -6.0584      2.00000
      5       0.6681     -0.00000
      6       5.6843      0.00000
      7       8.8788      0.00000
      8       9.4954      0.00000

 k-point    81 :       0.5000    0.2333    0.0000
  band No.  band energies     occupation 
      1     -17.9601      2.00000
      2     -13.3467      2.00000
      3     -11.6257      2.00000
      4      -5.4940      2.00000
      5      -0.0076     -0.00000
      6       6.4427      0.00000
      7       9.0150      0.00000
      8      10.0127      0.00000

 k-point    82 :      -0.4667    0.2333    0.0000
  band No.  band energies     occupation 
      1     -17.3973      2.00000
      2     -13.9658      2.00000
      3     -11.9110      2.00000
      4      -4.9235      2.00000
      5      -0.6641     -0.00000
      6       7.2581      0.00000
      7       7.7163      0.00000
      8       8.9337      0.00000

 k-point    83 :      -0.4333    0.2333    0.0000
  band No.  band energies     occupation 
      1     -16.8199      2.00000
      2     -14.6012      2.00000
      3     -12.0853      2.00000
      4      -4.3940      2.00000
      5      -1.2523     -0.00000
      6       8.0946      0.00000
      7       8.1156      0.00000
      8       8.8820      0.00000

 k-point    84 :      -0.4000    0.2333    0.0000
  band No.  band energies     occupation 
      1     -16.3100      2.00000
      2     -15.1457      2.00000
      3     -12.1677      2.00000
      4      -4.0244      2.00000
      5      -1.6503     -0.00000
      6       8.2241      0.00000
      7       8.7897      0.00000
      8       9.0502      0.00000

 k-point    85 :      -0.4667    0.2667    0.0000
  band No.  band energies     occupation 
      1     -17.4191      2.00000
      2     -13.7661      2.00000
      3     -12.1250      2.00000
      4      -4.9272      2.00000
      5      -0.6255     -0.00000
      6       7.6155      0.00000
      7       9.7750      0.00000
      8       9.8855      0.00000

 k-point    86 :      -0.4333    0.2667    0.0000
  band No.  band energies     occupation 
      1     -16.8537      2.00000
      2     -14.2635      2.00000
      3     -12.4703      2.00000
      4      -4.3616      2.00000
      5      -1.2269     -0.00000
      6       7.9464      0.00000
      7       8.0524      0.00000
      8       9.7289      0.00000

 k-point    87 :      -0.4000    0.2667    0.0000
  band No.  band energies     occupation 
      1     -16.2960      2.00000
      2     -14.7993      2.00000
      3     -12.6616      2.00000
      4      -3.8594      2.00000
      5      -1.7495     -0.00000
      6       8.0064      0.00000
      7       8.8960      0.00000
      8       9.6722      0.00000

 k-point    88 :      -0.3667    0.2667    0.0000
  band No.  band energies     occupation 
      1     -15.9541      2.00000
      2     -15.1378      2.00000
      3     -12.7217      2.00000
      4      -3.6190      2.00000
      5      -1.9967     -0.00000
      6       8.0057      0.00000
      7       9.5525      0.00000
      8       9.6046      0.00000

 k-point    89 :      -0.4000    0.3000    0.0000
  band No.  band energies     occupation 
      1     -16.2986      2.00000
      2     -14.6221      2.00000
      3     -12.8813      2.00000
      4      -3.8012      2.00000
      5      -1.7839     -0.00000
      6       7.9281      0.00000
      7       8.8672      0.00000
      8      10.1292      0.00000

 k-point    90 :      -0.3667    0.3000    0.0000
  band No.  band energies     occupation 
      1     -15.7905      2.00000
      2     -15.0287      2.00000
      3     -13.0915      2.00000
      4      -3.3209      2.00102
      5      -2.2610     -0.00131
      6       7.8711      0.00000
      7       9.6170      0.00000
      8      10.0633      0.00000

 k-point    91 :      -0.3333    0.3333    0.0000
  band No.  band energies     occupation 
      1     -15.3527      2.00000
      2     -15.3527      2.00000
      3     -13.2570      2.00000
      4      -2.7860      1.00086
      5      -2.7860      1.00084
      6       7.8159      0.00000
      7      10.0380      0.00000
      8      10.0380      0.00000


--------------------------------------------------------------------------------------------------------


 soft charge-density along one line, spin component           1
         0         1         2         3         4         5         6         7         8         9
 total charge-density along one line

 pseudopotential strength for first ion, spin component:           1
 10.220  13.592   0.000  -0.000  -0.000  -0.000   0.000   0.000
 13.592  18.074   0.000  -0.000  -0.000  -0.000   0.000   0.000
  0.000   0.000  -4.353  -0.000  -0.000   8.515   0.000   0.000
 -0.000  -0.000  -0.000  -4.346  -0.000   0.000   8.506   0.000
 -0.000  -0.000  -0.000  -0.000  -4.353   0.000   0.000   8.515
 -0.000  -0.000   8.515   0.000   0.000 -18.795  -0.000  -0.000
  0.000   0.000   0.000   8.506   0.000  -0.000 -18.787  -0.000
  0.000   0.000   0.000   0.000   8.515  -0.000  -0.000 -18.795
 total augmentation occupancy for first ion, spin component:           1
  8.154  -3.621  -0.000   0.000  -0.000   0.000   0.000   0.000
 -3.621   1.664   0.000   0.000  -0.000   0.000   0.000   0.000
  0.000   0.000   1.816   0.000   0.000   0.171  -0.000   0.000
  0.000   0.000   0.000   1.205   0.000  -0.000   0.076   0.000
  0.000   0.000   0.000   0.000   1.816   0.000   0.000   0.171
  0.000   0.000   0.171  -0.000   0.000   0.017   0.000   0.000
  0.000   0.000  -0.000   0.076   0.000   0.000   0.005   0.000
 -0.000   0.000   0.000   0.000   0.171   0.000   0.000   0.017


------------------------ aborting loop because EDIFF is reached ----------------------------------------


    CHARGE:  cpu time    0.6598: real time    0.2046
    FORLOC:  cpu time    0.0040: real time    0.0040
    FORNL :  cpu time    0.1941: real time    0.1941
    STRESS:  cpu time    1.1831: real time    0.6229
    FORCOR:  cpu time    0.1500: real time    0.1045
    FORHAR:  cpu time    0.0281: real time    0.0281
    MIXING:  cpu time    0.0049: real time    0.0049
    OFIELD:  cpu time    0.0000: real time    0.0000

  FORCE on cell =-STRESS in cart. coord.  units (eV):
  Direction    XX          YY          ZZ          XY          YZ          ZX
  --------------------------------------------------------------------------------------
  Alpha Z     3.09699     3.09699     3.09699
  Ewald    1551.31826  1551.31826 -1819.21330     0.00000     0.00000     0.00000
  Hartree  1518.88542  1518.88542 -1507.49724    -0.00000    -0.00000    -0.00000
  E(xc)     -29.64241   -29.64241   -30.75476    -0.00000     0.00000     0.00000
  Local   -3156.03723 -3156.03727  3224.13001     0.00000    -0.00000    -0.00000
  n-local    -7.27575    -6.71549    -6.41533     0.29127     0.00000     0.00000
  augment    -0.76126    -0.76121    -0.70509    -0.00000    -0.00000    -0.00000
  Kinetic   121.60441   117.44416   137.07599    -3.19084    -0.00000     0.00000
  Fock        0.00000     0.00000     0.00000     0.00000     0.00000     0.00000
  -------------------------------------------------------------------------------------
  Total      -0.61157    -0.61157    -0.28274     0.00000    -0.00000     0.00000
  in kB      -9.23517    -9.23517    -4.26964     0.00000    -0.00000     0.00000
  external pressure =       -7.58 kB  Pullay stress =        0.00 kB


 VOLUME and BASIS-vectors are now :
 -----------------------------------------------------------------------------
  energy-cutoff  :      400.00
  volume of cell :      106.10
      direct lattice vectors                 reciprocal lattice vectors
     2.143412872 -1.237500000  0.000000000     0.233272836 -0.404040404  0.000000000
     2.143412872  1.237500000  0.000000000     0.233272836  0.404040404 -0.000000000
     0.000000000  0.000000000 20.000000000    -0.000000000  0.000000000  0.050000000

  length of vectors
     2.474999998  2.474999998 20.000000000     0.466545672  0.466545672  0.050000000


 FORCES acting on ions
    electron-ion (+dipol)            ewald-force                    non-local-force                 convergence-correction
 -----------------------------------------------------------------------------------------------
   0.526E-06 0.655E-14 0.543E-04   -.211E-06 -.182E-14 0.000E+00   0.139E-16 0.555E-16 0.000E+00   0.558E-10 -.273E-14 0.929E-13
   -.208E-05 0.356E-13 0.539E-04   0.211E-06 0.623E-14 0.000E+00   0.139E-16 -.416E-16 0.000E+00   -.555E-10 0.141E-14 0.933E-13
 -----------------------------------------------------------------------------------------------
   -.156E-05 0.421E-13 0.108E-03   0.111E-13 0.442E-14 0.000E+00   0.278E-16 0.139E-16 0.000E+00   0.308E-12 -.132E-14 0.186E-12


 POSITION                                       TOTAL-FORCE (eV/Angst)
 -----------------------------------------------------------------------------------
      0.00000      0.00000      0.00000        -0.000000     -0.000000      0.000000
      1.42894      0.00000      0.00000         0.000000      0.000000      0.000000
 -----------------------------------------------------------------------------------
    total drift:                               -0.000002      0.000000      0.000108


--------------------------------------------------------------------------------------------------------



  FREE ENERGIE OF THE ION-ELECTRON SYSTEM (eV)
  ---------------------------------------------------
  free  energy   TOTEN  =       -18.46332086 eV

  energy  without entropy=      -18.46308774  energy(sigma->0) =      -18.46324316



--------------------------------------------------------------------------------------------------------


    POTLOK:  cpu time    0.1159: real time    0.1163


--------------------------------------------------------------------------------------------------------


 writing wavefunctions
     LOOP+:  cpu time  834.1866: real time  111.2198
 vacuum level on the upper side and lower side of the slab         1.496         1.496
    4ORBIT:  cpu time    0.0001: real time    0.0195

 total amount of memory used by VASP on root node    89461. kBytes
========================================================================

   base      :      30000. kBytes
   nonl-proj :      11436. kBytes
   fftplans  :       9820. kBytes
   grid      :      15265. kBytes
   one-center:          6. kBytes
   wavefun   :      22934. kBytes

  
  
 General timing and accounting informations for this job:
 ========================================================
  
                  Total CPU time used (sec):      835.744
                            User time (sec):      449.219
                          System time (sec):      386.525
                         Elapsed time (sec):      112.370
  
                   Maximum memory used (kb):      117232.
                   Average memory used (kb):           0.
  
                          Minor page faults:        91917
                          Major page faults:           50
                 Voluntary context switches:         7020
