 vasp.5.4.1 05Feb16 (build Nov 12 2018 11:59:28) complex                         
 executed on           IFC91_ompi date 2021.07.23  11:21:37
 running on    1 total cores
 distrk:  each k-point on    1 cores,    1 groups
 distr:  one band on NCORES_PER_BAND=   1 cores,    1 groups


--------------------------------------------------------------------------------------------------------


 INCAR:
 POTCAR:    PAW_PBE C 08Apr2002                   
 POTCAR:    PAW_PBE C 08Apr2002                   
   VRHFIN =C: s2p2                                                              
   LEXCH  = PE                                                                  
   EATOM  =   147.1560 eV,   10.8157 Ry                                         
                                                                                
   TITEL  = PAW_PBE C 08Apr2002                                                 
   LULTRA =        F    use ultrasoft PP ?                                      
   IUNSCR =        1    unscreen: 0-lin 1-nonlin 2-no                           
   RPACOR =    1.200    partial core radius                                     
   POMASS =   12.011; ZVAL   =    4.000    mass and valenz                      
   RCORE  =    1.500    outmost cutoff radius                                   
   RWIGS  =    1.630; RWIGS  =    0.863    wigner-seitz radius (au A)           
   ENMAX  =  400.000; ENMIN  =  300.000 eV                                      
   ICORE  =        2    local potential                                         
   LCOR   =        T    correct aug charges                                     
   LPAW   =        T    paw PP                                                  
   EAUG   =  644.873                                                            
   DEXC   =    0.000                                                            
   RMAX   =    1.529    core radius for proj-oper                               
   RAUG   =    1.300    factor for augmentation sphere                          
   RDEP   =    1.501    radius for radial grids                                 
   RDEPT  =    1.300    core radius for aug-charge                              
                                                                                
   Atomic configuration                                                         
    4 entries                                                                   
     n  l   j            E        occ.                                          
     1  0  0.50      -273.3789   2.0000                                         
     2  0  0.50       -13.7508   2.0000                                         
     2  1  0.50        -5.2854   2.0000                                         
     3  2  1.50        -5.4423   0.0000                                         
   Description                                                                  
     l       E           TYP  RCUT    TYP  RCUT                                 
     0    -13.7508458     23  1.200                                             
     0     -8.2022199     23  1.200                                             
     1     -5.2854383     23  1.500                                             
     1     34.0145650     23  1.500                                             
     2     -5.4423304      7  1.500                                             
  local pseudopotential read in
  partial core-charges read in
  partial kinetic energy density read in
  atomic valenz-charges read in
  non local Contribution for L=           0  read in
    real space projection operators read in
  non local Contribution for L=           0  read in
    real space projection operators read in
  non local Contribution for L=           1  read in
    real space projection operators read in
  non local Contribution for L=           1  read in
    real space projection operators read in
    PAW grid and wavefunctions read in

   number of l-projection  operators is LMAX  =           4
   number of lm-projection operators is LMMAX =           8

  PAW_PBE C 08Apr2002                   :
 energy of atom  1       EATOM= -147.1560
 kinetic energy error for atom=    0.0288 (will be added to EATOM!!)


 POSCAR: single layer graphene                   
  positions in cartesian coordinates
  No initial velocities read in
 exchange correlation table for  LEXCH =        8
   RHO(1)=    0.500       N(1)  =     2000
   RHO(2)=  100.500       N(2)  =     4000



--------------------------------------------------------------------------------------------------------


 ion  position               nearest neighbor table
   1  0.000  0.000  0.000-   2 1.43   2 1.43   2 1.43
   2  0.333  0.333  0.000-   1 1.43   1 1.43   1 1.43


IMPORTANT INFORMATION: All symmetrisations will be switched off!
NOSYMM: (Re-)initialisation of all symmetry stuff for point group C_1.



 KPOINTS: Gamma-centered k-grid                   

Automatic generation of k-mesh.
Space group operators:
 irot       det(A)        alpha          n_x          n_y          n_z        tau_x        tau_y        tau_z
    1     1.000000     0.000000     1.000000     0.000000     0.000000     0.000000     0.000000     0.000000
 
 Subroutine IBZKPT returns following result:
 ===========================================
 
 Found    452 irreducible k-points:
 
 Following reciprocal coordinates:
            Coordinates               Weight
  0.000000  0.000000  0.000000      1.000000
  0.033333  0.000000  0.000000      2.000000
  0.066667  0.000000  0.000000      2.000000
  0.100000  0.000000  0.000000      2.000000
  0.133333  0.000000  0.000000      2.000000
  0.166667  0.000000  0.000000      2.000000
  0.200000  0.000000  0.000000      2.000000
  0.233333  0.000000  0.000000      2.000000
  0.266667  0.000000  0.000000      2.000000
  0.300000  0.000000  0.000000      2.000000
  0.333333  0.000000  0.000000      2.000000
  0.366667  0.000000  0.000000      2.000000
  0.400000  0.000000  0.000000      2.000000
  0.433333  0.000000  0.000000      2.000000
  0.466667  0.000000  0.000000      2.000000
  0.500000  0.000000  0.000000      1.000000
  0.000000  0.033333  0.000000      2.000000
  0.033333  0.033333  0.000000      2.000000
  0.066667  0.033333  0.000000      2.000000
  0.100000  0.033333  0.000000      2.000000
  0.133333  0.033333  0.000000      2.000000
  0.166667  0.033333  0.000000      2.000000
  0.200000  0.033333  0.000000      2.000000
  0.233333  0.033333  0.000000      2.000000
  0.266667  0.033333  0.000000      2.000000
  0.300000  0.033333  0.000000      2.000000
  0.333333  0.033333  0.000000      2.000000
  0.366667  0.033333  0.000000      2.000000
  0.400000  0.033333  0.000000      2.000000
  0.433333  0.033333  0.000000      2.000000
  0.466667  0.033333  0.000000      2.000000
  0.500000  0.033333  0.000000      2.000000
 -0.466667  0.033333  0.000000      2.000000
 -0.433333  0.033333  0.000000      2.000000
 -0.400000  0.033333  0.000000      2.000000
 -0.366667  0.033333  0.000000      2.000000
 -0.333333  0.033333  0.000000      2.000000
 -0.300000  0.033333  0.000000      2.000000
 -0.266667  0.033333  0.000000      2.000000
 -0.233333  0.033333  0.000000      2.000000
 -0.200000  0.033333  0.000000      2.000000
 -0.166667  0.033333  0.000000      2.000000
 -0.133333  0.033333  0.000000      2.000000
 -0.100000  0.033333  0.000000      2.000000
 -0.066667  0.033333  0.000000      2.000000
 -0.033333  0.033333  0.000000      2.000000
  0.000000  0.066667  0.000000      2.000000
  0.033333  0.066667  0.000000      2.000000
  0.066667  0.066667  0.000000      2.000000
  0.100000  0.066667  0.000000      2.000000
  0.133333  0.066667  0.000000      2.000000
  0.166667  0.066667  0.000000      2.000000
  0.200000  0.066667  0.000000      2.000000
  0.233333  0.066667  0.000000      2.000000
  0.266667  0.066667  0.000000      2.000000
  0.300000  0.066667  0.000000      2.000000
  0.333333  0.066667  0.000000      2.000000
  0.366667  0.066667  0.000000      2.000000
  0.400000  0.066667  0.000000      2.000000
  0.433333  0.066667  0.000000      2.000000
  0.466667  0.066667  0.000000      2.000000
  0.500000  0.066667  0.000000      2.000000
 -0.466667  0.066667  0.000000      2.000000
 -0.433333  0.066667  0.000000      2.000000
 -0.400000  0.066667  0.000000      2.000000
 -0.366667  0.066667  0.000000      2.000000
 -0.333333  0.066667  0.000000      2.000000
 -0.300000  0.066667  0.000000      2.000000
 -0.266667  0.066667  0.000000      2.000000
 -0.233333  0.066667  0.000000      2.000000
 -0.200000  0.066667  0.000000      2.000000
 -0.166667  0.066667  0.000000      2.000000
 -0.133333  0.066667  0.000000      2.000000
 -0.100000  0.066667  0.000000      2.000000
 -0.066667  0.066667  0.000000      2.000000
 -0.033333  0.066667  0.000000      2.000000
  0.000000  0.100000  0.000000      2.000000
  0.033333  0.100000  0.000000      2.000000
  0.066667  0.100000  0.000000      2.000000
  0.100000  0.100000  0.000000      2.000000
  0.133333  0.100000  0.000000      2.000000
  0.166667  0.100000  0.000000      2.000000
  0.200000  0.100000  0.000000      2.000000
  0.233333  0.100000  0.000000      2.000000
  0.266667  0.100000  0.000000      2.000000
  0.300000  0.100000  0.000000      2.000000
  0.333333  0.100000  0.000000      2.000000
  0.366667  0.100000  0.000000      2.000000
  0.400000  0.100000  0.000000      2.000000
  0.433333  0.100000  0.000000      2.000000
  0.466667  0.100000  0.000000      2.000000
  0.500000  0.100000  0.000000      2.000000
 -0.466667  0.100000  0.000000      2.000000
 -0.433333  0.100000  0.000000      2.000000
 -0.400000  0.100000  0.000000      2.000000
 -0.366667  0.100000  0.000000      2.000000
 -0.333333  0.100000  0.000000      2.000000
 -0.300000  0.100000  0.000000      2.000000
 -0.266667  0.100000  0.000000      2.000000
 -0.233333  0.100000  0.000000      2.000000
 -0.200000  0.100000  0.000000      2.000000
 -0.166667  0.100000  0.000000      2.000000
 -0.133333  0.100000  0.000000      2.000000
 -0.100000  0.100000  0.000000      2.000000
 -0.066667  0.100000  0.000000      2.000000
 -0.033333  0.100000  0.000000      2.000000
  0.000000  0.133333  0.000000      2.000000
  0.033333  0.133333  0.000000      2.000000
  0.066667  0.133333  0.000000      2.000000
  0.100000  0.133333  0.000000      2.000000
  0.133333  0.133333  0.000000      2.000000
  0.166667  0.133333  0.000000      2.000000
  0.200000  0.133333  0.000000      2.000000
  0.233333  0.133333  0.000000      2.000000
  0.266667  0.133333  0.000000      2.000000
  0.300000  0.133333  0.000000      2.000000
  0.333333  0.133333  0.000000      2.000000
  0.366667  0.133333  0.000000      2.000000
  0.400000  0.133333  0.000000      2.000000
  0.433333  0.133333  0.000000      2.000000
  0.466667  0.133333  0.000000      2.000000
  0.500000  0.133333  0.000000      2.000000
 -0.466667  0.133333  0.000000      2.000000
 -0.433333  0.133333  0.000000      2.000000
 -0.400000  0.133333  0.000000      2.000000
 -0.366667  0.133333  0.000000      2.000000
 -0.333333  0.133333  0.000000      2.000000
 -0.300000  0.133333  0.000000      2.000000
 -0.266667  0.133333  0.000000      2.000000
 -0.233333  0.133333  0.000000      2.000000
 -0.200000  0.133333  0.000000      2.000000
 -0.166667  0.133333  0.000000      2.000000
 -0.133333  0.133333  0.000000      2.000000
 -0.100000  0.133333  0.000000      2.000000
 -0.066667  0.133333  0.000000      2.000000
 -0.033333  0.133333  0.000000      2.000000
  0.000000  0.166667  0.000000      2.000000
  0.033333  0.166667  0.000000      2.000000
  0.066667  0.166667  0.000000      2.000000
  0.100000  0.166667  0.000000      2.000000
  0.133333  0.166667  0.000000      2.000000
  0.166667  0.166667  0.000000      2.000000
  0.200000  0.166667  0.000000      2.000000
  0.233333  0.166667  0.000000      2.000000
  0.266667  0.166667  0.000000      2.000000
  0.300000  0.166667  0.000000      2.000000
  0.333333  0.166667  0.000000      2.000000
  0.366667  0.166667  0.000000      2.000000
  0.400000  0.166667  0.000000      2.000000
  0.433333  0.166667  0.000000      2.000000
  0.466667  0.166667  0.000000      2.000000
  0.500000  0.166667  0.000000      2.000000
 -0.466667  0.166667  0.000000      2.000000
 -0.433333  0.166667  0.000000      2.000000
 -0.400000  0.166667  0.000000      2.000000
 -0.366667  0.166667  0.000000      2.000000
 -0.333333  0.166667  0.000000      2.000000
 -0.300000  0.166667  0.000000      2.000000
 -0.266667  0.166667  0.000000      2.000000
 -0.233333  0.166667  0.000000      2.000000
 -0.200000  0.166667  0.000000      2.000000
 -0.166667  0.166667  0.000000      2.000000
 -0.133333  0.166667  0.000000      2.000000
 -0.100000  0.166667  0.000000      2.000000
 -0.066667  0.166667  0.000000      2.000000
 -0.033333  0.166667  0.000000      2.000000
  0.000000  0.200000  0.000000      2.000000
  0.033333  0.200000  0.000000      2.000000
  0.066667  0.200000  0.000000      2.000000
  0.100000  0.200000  0.000000      2.000000
  0.133333  0.200000  0.000000      2.000000
  0.166667  0.200000  0.000000      2.000000
  0.200000  0.200000  0.000000      2.000000
  0.233333  0.200000  0.000000      2.000000
  0.266667  0.200000  0.000000      2.000000
  0.300000  0.200000  0.000000      2.000000
  0.333333  0.200000  0.000000      2.000000
  0.366667  0.200000  0.000000      2.000000
  0.400000  0.200000  0.000000      2.000000
  0.433333  0.200000  0.000000      2.000000
  0.466667  0.200000  0.000000      2.000000
  0.500000  0.200000  0.000000      2.000000
 -0.466667  0.200000  0.000000      2.000000
 -0.433333  0.200000  0.000000      2.000000
 -0.400000  0.200000  0.000000      2.000000
 -0.366667  0.200000  0.000000      2.000000
 -0.333333  0.200000  0.000000      2.000000
 -0.300000  0.200000  0.000000      2.000000
 -0.266667  0.200000  0.000000      2.000000
 -0.233333  0.200000  0.000000      2.000000
 -0.200000  0.200000  0.000000      2.000000
 -0.166667  0.200000  0.000000      2.000000
 -0.133333  0.200000  0.000000      2.000000
 -0.100000  0.200000  0.000000      2.000000
 -0.066667  0.200000  0.000000      2.000000
 -0.033333  0.200000  0.000000      2.000000
  0.000000  0.233333  0.000000      2.000000
  0.033333  0.233333  0.000000      2.000000
  0.066667  0.233333  0.000000      2.000000
  0.100000  0.233333  0.000000      2.000000
  0.133333  0.233333  0.000000      2.000000
  0.166667  0.233333  0.000000      2.000000
  0.200000  0.233333  0.000000      2.000000
  0.233333  0.233333  0.000000      2.000000
  0.266667  0.233333  0.000000      2.000000
  0.300000  0.233333  0.000000      2.000000
  0.333333  0.233333  0.000000      2.000000
  0.366667  0.233333  0.000000      2.000000
  0.400000  0.233333  0.000000      2.000000
  0.433333  0.233333  0.000000      2.000000
  0.466667  0.233333  0.000000      2.000000
  0.500000  0.233333  0.000000      2.000000
 -0.466667  0.233333  0.000000      2.000000
 -0.433333  0.233333  0.000000      2.000000
 -0.400000  0.233333  0.000000      2.000000
 -0.366667  0.233333  0.000000      2.000000
 -0.333333  0.233333  0.000000      2.000000
 -0.300000  0.233333  0.000000      2.000000
 -0.266667  0.233333  0.000000      2.000000
 -0.233333  0.233333  0.000000      2.000000
 -0.200000  0.233333  0.000000      2.000000
 -0.166667  0.233333  0.000000      2.000000
 -0.133333  0.233333  0.000000      2.000000
 -0.100000  0.233333  0.000000      2.000000
 -0.066667  0.233333  0.000000      2.000000
 -0.033333  0.233333  0.000000      2.000000
  0.000000  0.266667  0.000000      2.000000
  0.033333  0.266667  0.000000      2.000000
  0.066667  0.266667  0.000000      2.000000
  0.100000  0.266667  0.000000      2.000000
  0.133333  0.266667  0.000000      2.000000
  0.166667  0.266667  0.000000      2.000000
  0.200000  0.266667  0.000000      2.000000
  0.233333  0.266667  0.000000      2.000000
  0.266667  0.266667  0.000000      2.000000
  0.300000  0.266667  0.000000      2.000000
  0.333333  0.266667  0.000000      2.000000
  0.366667  0.266667  0.000000      2.000000
  0.400000  0.266667  0.000000      2.000000
  0.433333  0.266667  0.000000      2.000000
  0.466667  0.266667  0.000000      2.000000
  0.500000  0.266667  0.000000      2.000000
 -0.466667  0.266667  0.000000      2.000000
 -0.433333  0.266667  0.000000      2.000000
 -0.400000  0.266667  0.000000      2.000000
 -0.366667  0.266667  0.000000      2.000000
 -0.333333  0.266667  0.000000      2.000000
 -0.300000  0.266667  0.000000      2.000000
 -0.266667  0.266667  0.000000      2.000000
 -0.233333  0.266667  0.000000      2.000000
 -0.200000  0.266667  0.000000      2.000000
 -0.166667  0.266667  0.000000      2.000000
 -0.133333  0.266667  0.000000      2.000000
 -0.100000  0.266667  0.000000      2.000000
 -0.066667  0.266667  0.000000      2.000000
 -0.033333  0.266667  0.000000      2.000000
  0.000000  0.300000  0.000000      2.000000
  0.033333  0.300000  0.000000      2.000000
  0.066667  0.300000  0.000000      2.000000
  0.100000  0.300000  0.000000      2.000000
  0.133333  0.300000  0.000000      2.000000
  0.166667  0.300000  0.000000      2.000000
  0.200000  0.300000  0.000000      2.000000
  0.233333  0.300000  0.000000      2.000000
  0.266667  0.300000  0.000000      2.000000
  0.300000  0.300000  0.000000      2.000000
  0.333333  0.300000  0.000000      2.000000
  0.366667  0.300000  0.000000      2.000000
  0.400000  0.300000  0.000000      2.000000
  0.433333  0.300000  0.000000      2.000000
  0.466667  0.300000  0.000000      2.000000
  0.500000  0.300000  0.000000      2.000000
 -0.466667  0.300000  0.000000      2.000000
 -0.433333  0.300000  0.000000      2.000000
 -0.400000  0.300000  0.000000      2.000000
 -0.366667  0.300000  0.000000      2.000000
 -0.333333  0.300000  0.000000      2.000000
 -0.300000  0.300000  0.000000      2.000000
 -0.266667  0.300000  0.000000      2.000000
 -0.233333  0.300000  0.000000      2.000000
 -0.200000  0.300000  0.000000      2.000000
 -0.166667  0.300000  0.000000      2.000000
 -0.133333  0.300000  0.000000      2.000000
 -0.100000  0.300000  0.000000      2.000000
 -0.066667  0.300000  0.000000      2.000000
 -0.033333  0.300000  0.000000      2.000000
  0.000000  0.333333  0.000000      2.000000
  0.033333  0.333333  0.000000      2.000000
  0.066667  0.333333  0.000000      2.000000
  0.100000  0.333333  0.000000      2.000000
  0.133333  0.333333  0.000000      2.000000
  0.166667  0.333333  0.000000      2.000000
  0.200000  0.333333  0.000000      2.000000
  0.233333  0.333333  0.000000      2.000000
  0.266667  0.333333  0.000000      2.000000
  0.300000  0.333333  0.000000      2.000000
  0.333333  0.333333  0.000000      2.000000
  0.366667  0.333333  0.000000      2.000000
  0.400000  0.333333  0.000000      2.000000
  0.433333  0.333333  0.000000      2.000000
  0.466667  0.333333  0.000000      2.000000
  0.500000  0.333333  0.000000      2.000000
 -0.466667  0.333333  0.000000      2.000000
 -0.433333  0.333333  0.000000      2.000000
 -0.400000  0.333333  0.000000      2.000000
 -0.366667  0.333333  0.000000      2.000000
 -0.333333  0.333333  0.000000      2.000000
 -0.300000  0.333333  0.000000      2.000000
 -0.266667  0.333333  0.000000      2.000000
 -0.233333  0.333333  0.000000      2.000000
 -0.200000  0.333333  0.000000      2.000000
 -0.166667  0.333333  0.000000      2.000000
 -0.133333  0.333333  0.000000      2.000000
 -0.100000  0.333333  0.000000      2.000000
 -0.066667  0.333333  0.000000      2.000000
 -0.033333  0.333333  0.000000      2.000000
  0.000000  0.366667  0.000000      2.000000
  0.033333  0.366667  0.000000      2.000000
  0.066667  0.366667  0.000000      2.000000
  0.100000  0.366667  0.000000      2.000000
  0.133333  0.366667  0.000000      2.000000
  0.166667  0.366667  0.000000      2.000000
  0.200000  0.366667  0.000000      2.000000
  0.233333  0.366667  0.000000      2.000000
  0.266667  0.366667  0.000000      2.000000
  0.300000  0.366667  0.000000      2.000000
  0.333333  0.366667  0.000000      2.000000
  0.366667  0.366667  0.000000      2.000000
  0.400000  0.366667  0.000000      2.000000
  0.433333  0.366667  0.000000      2.000000
  0.466667  0.366667  0.000000      2.000000
  0.500000  0.366667  0.000000      2.000000
 -0.466667  0.366667  0.000000      2.000000
 -0.433333  0.366667  0.000000      2.000000
 -0.400000  0.366667  0.000000      2.000000
 -0.366667  0.366667  0.000000      2.000000
 -0.333333  0.366667  0.000000      2.000000
 -0.300000  0.366667  0.000000      2.000000
 -0.266667  0.366667  0.000000      2.000000
 -0.233333  0.366667  0.000000      2.000000
 -0.200000  0.366667  0.000000      2.000000
 -0.166667  0.366667  0.000000      2.000000
 -0.133333  0.366667  0.000000      2.000000
 -0.100000  0.366667  0.000000      2.000000
 -0.066667  0.366667  0.000000      2.000000
 -0.033333  0.366667  0.000000      2.000000
  0.000000  0.400000  0.000000      2.000000
  0.033333  0.400000  0.000000      2.000000
  0.066667  0.400000  0.000000      2.000000
  0.100000  0.400000  0.000000      2.000000
  0.133333  0.400000  0.000000      2.000000
  0.166667  0.400000  0.000000      2.000000
  0.200000  0.400000  0.000000      2.000000
  0.233333  0.400000  0.000000      2.000000
  0.266667  0.400000  0.000000      2.000000
  0.300000  0.400000  0.000000      2.000000
  0.333333  0.400000  0.000000      2.000000
  0.366667  0.400000  0.000000      2.000000
  0.400000  0.400000  0.000000      2.000000
  0.433333  0.400000  0.000000      2.000000
  0.466667  0.400000  0.000000      2.000000
  0.500000  0.400000  0.000000      2.000000
 -0.466667  0.400000  0.000000      2.000000
 -0.433333  0.400000  0.000000      2.000000
 -0.400000  0.400000  0.000000      2.000000
 -0.366667  0.400000  0.000000      2.000000
 -0.333333  0.400000  0.000000      2.000000
 -0.300000  0.400000  0.000000      2.000000
 -0.266667  0.400000  0.000000      2.000000
 -0.233333  0.400000  0.000000      2.000000
 -0.200000  0.400000  0.000000      2.000000
 -0.166667  0.400000  0.000000      2.000000
 -0.133333  0.400000  0.000000      2.000000
 -0.100000  0.400000  0.000000      2.000000
 -0.066667  0.400000  0.000000      2.000000
 -0.033333  0.400000  0.000000      2.000000
  0.000000  0.433333  0.000000      2.000000
  0.033333  0.433333  0.000000      2.000000
  0.066667  0.433333  0.000000      2.000000
  0.100000  0.433333  0.000000      2.000000
  0.133333  0.433333  0.000000      2.000000
  0.166667  0.433333  0.000000      2.000000
  0.200000  0.433333  0.000000      2.000000
  0.233333  0.433333  0.000000      2.000000
  0.266667  0.433333  0.000000      2.000000
  0.300000  0.433333  0.000000      2.000000
  0.333333  0.433333  0.000000      2.000000
  0.366667  0.433333  0.000000      2.000000
  0.400000  0.433333  0.000000      2.000000
  0.433333  0.433333  0.000000      2.000000
  0.466667  0.433333  0.000000      2.000000
  0.500000  0.433333  0.000000      2.000000
 -0.466667  0.433333  0.000000      2.000000
 -0.433333  0.433333  0.000000      2.000000
 -0.400000  0.433333  0.000000      2.000000
 -0.366667  0.433333  0.000000      2.000000
 -0.333333  0.433333  0.000000      2.000000
 -0.300000  0.433333  0.000000      2.000000
 -0.266667  0.433333  0.000000      2.000000
 -0.233333  0.433333  0.000000      2.000000
 -0.200000  0.433333  0.000000      2.000000
 -0.166667  0.433333  0.000000      2.000000
 -0.133333  0.433333  0.000000      2.000000
 -0.100000  0.433333  0.000000      2.000000
 -0.066667  0.433333  0.000000      2.000000
 -0.033333  0.433333  0.000000      2.000000
  0.000000  0.466667  0.000000      2.000000
  0.033333  0.466667  0.000000      2.000000
  0.066667  0.466667  0.000000      2.000000
  0.100000  0.466667  0.000000      2.000000
  0.133333  0.466667  0.000000      2.000000
  0.166667  0.466667  0.000000      2.000000
  0.200000  0.466667  0.000000      2.000000
  0.233333  0.466667  0.000000      2.000000
  0.266667  0.466667  0.000000      2.000000
  0.300000  0.466667  0.000000      2.000000
  0.333333  0.466667  0.000000      2.000000
  0.366667  0.466667  0.000000      2.000000
  0.400000  0.466667  0.000000      2.000000
  0.433333  0.466667  0.000000      2.000000
  0.466667  0.466667  0.000000      2.000000
  0.500000  0.466667  0.000000      2.000000
 -0.466667  0.466667  0.000000      2.000000
 -0.433333  0.466667  0.000000      2.000000
 -0.400000  0.466667  0.000000      2.000000
 -0.366667  0.466667  0.000000      2.000000
 -0.333333  0.466667  0.000000      2.000000
 -0.300000  0.466667  0.000000      2.000000
 -0.266667  0.466667  0.000000      2.000000
 -0.233333  0.466667  0.000000      2.000000
 -0.200000  0.466667  0.000000      2.000000
 -0.166667  0.466667  0.000000      2.000000
 -0.133333  0.466667  0.000000      2.000000
 -0.100000  0.466667  0.000000      2.000000
 -0.066667  0.466667  0.000000      2.000000
 -0.033333  0.466667  0.000000      2.000000
  0.000000  0.500000  0.000000      1.000000
  0.033333  0.500000  0.000000      2.000000
  0.066667  0.500000  0.000000      2.000000
  0.100000  0.500000  0.000000      2.000000
  0.133333  0.500000  0.000000      2.000000
  0.166667  0.500000  0.000000      2.000000
  0.200000  0.500000  0.000000      2.000000
  0.233333  0.500000  0.000000      2.000000
  0.266667  0.500000  0.000000      2.000000
  0.300000  0.500000  0.000000      2.000000
  0.333333  0.500000  0.000000      2.000000
  0.366667  0.500000  0.000000      2.000000
  0.400000  0.500000  0.000000      2.000000
  0.433333  0.500000  0.000000      2.000000
  0.466667  0.500000  0.000000      2.000000
  0.500000  0.500000  0.000000      1.000000
 
 Following cartesian coordinates:
            Coordinates               Weight
  0.000000  0.000000  0.000000      1.000000
  0.007776 -0.013468  0.000000      2.000000
  0.015552 -0.026936  0.000000      2.000000
  0.023327 -0.040404  0.000000      2.000000
  0.031103 -0.053872  0.000000      2.000000
  0.038879 -0.067340  0.000000      2.000000
  0.046655 -0.080808  0.000000      2.000000
  0.054430 -0.094276  0.000000      2.000000
  0.062206 -0.107744  0.000000      2.000000
  0.069982 -0.121212  0.000000      2.000000
  0.077758 -0.134680  0.000000      2.000000
  0.085533 -0.148148  0.000000      2.000000
  0.093309 -0.161616  0.000000      2.000000
  0.101085 -0.175084  0.000000      2.000000
  0.108861 -0.188552  0.000000      2.000000
  0.116636 -0.202020  0.000000      1.000000
  0.007776  0.013468  0.000000      2.000000
  0.015552  0.000000  0.000000      2.000000
  0.023327 -0.013468  0.000000      2.000000
  0.031103 -0.026936  0.000000      2.000000
  0.038879 -0.040404  0.000000      2.000000
  0.046655 -0.053872  0.000000      2.000000
  0.054430 -0.067340  0.000000      2.000000
  0.062206 -0.080808  0.000000      2.000000
  0.069982 -0.094276  0.000000      2.000000
  0.077758 -0.107744  0.000000      2.000000
  0.085533 -0.121212  0.000000      2.000000
  0.093309 -0.134680  0.000000      2.000000
  0.101085 -0.148148  0.000000      2.000000
  0.108861 -0.161616  0.000000      2.000000
  0.116636 -0.175084  0.000000      2.000000
  0.124412 -0.188552  0.000000      2.000000
 -0.101085  0.202020  0.000000      2.000000
 -0.093309  0.188552  0.000000      2.000000
 -0.085533  0.175084  0.000000      2.000000
 -0.077758  0.161616  0.000000      2.000000
 -0.069982  0.148148  0.000000      2.000000
 -0.062206  0.134680  0.000000      2.000000
 -0.054430  0.121212  0.000000      2.000000
 -0.046655  0.107744  0.000000      2.000000
 -0.038879  0.094276  0.000000      2.000000
 -0.031103  0.080808  0.000000      2.000000
 -0.023327  0.067340  0.000000      2.000000
 -0.015552  0.053872  0.000000      2.000000
 -0.007776  0.040404  0.000000      2.000000
  0.000000  0.026936  0.000000      2.000000
  0.015552  0.026936  0.000000      2.000000
  0.023327  0.013468  0.000000      2.000000
  0.031103  0.000000  0.000000      2.000000
  0.038879 -0.013468  0.000000      2.000000
  0.046655 -0.026936  0.000000      2.000000
  0.054430 -0.040404  0.000000      2.000000
  0.062206 -0.053872  0.000000      2.000000
  0.069982 -0.067340  0.000000      2.000000
  0.077758 -0.080808  0.000000      2.000000
  0.085533 -0.094276  0.000000      2.000000
  0.093309 -0.107744  0.000000      2.000000
  0.101085 -0.121212  0.000000      2.000000
  0.108861 -0.134680  0.000000      2.000000
  0.116636 -0.148148  0.000000      2.000000
  0.124412 -0.161616  0.000000      2.000000
  0.132188 -0.175084  0.000000      2.000000
 -0.093309  0.215488  0.000000      2.000000
 -0.085533  0.202020  0.000000      2.000000
 -0.077758  0.188552  0.000000      2.000000
 -0.069982  0.175084  0.000000      2.000000
 -0.062206  0.161616  0.000000      2.000000
 -0.054430  0.148148  0.000000      2.000000
 -0.046655  0.134680  0.000000      2.000000
 -0.038879  0.121212  0.000000      2.000000
 -0.031103  0.107744  0.000000      2.000000
 -0.023327  0.094276  0.000000      2.000000
 -0.015552  0.080808  0.000000      2.000000
 -0.007776  0.067340  0.000000      2.000000
  0.000000  0.053872  0.000000      2.000000
  0.007776  0.040404  0.000000      2.000000
  0.023327  0.040404  0.000000      2.000000
  0.031103  0.026936  0.000000      2.000000
  0.038879  0.013468  0.000000      2.000000
  0.046655  0.000000  0.000000      2.000000
  0.054430 -0.013468  0.000000      2.000000
  0.062206 -0.026936  0.000000      2.000000
  0.069982 -0.040404  0.000000      2.000000
  0.077758 -0.053872  0.000000      2.000000
  0.085533 -0.067340  0.000000      2.000000
  0.093309 -0.080808  0.000000      2.000000
  0.101085 -0.094276  0.000000      2.000000
  0.108861 -0.107744  0.000000      2.000000
  0.116636 -0.121212  0.000000      2.000000
  0.124412 -0.134680  0.000000      2.000000
  0.132188 -0.148148  0.000000      2.000000
  0.139964 -0.161616  0.000000      2.000000
 -0.085533  0.228956  0.000000      2.000000
 -0.077758  0.215488  0.000000      2.000000
 -0.069982  0.202020  0.000000      2.000000
 -0.062206  0.188552  0.000000      2.000000
 -0.054430  0.175084  0.000000      2.000000
 -0.046655  0.161616  0.000000      2.000000
 -0.038879  0.148148  0.000000      2.000000
 -0.031103  0.134680  0.000000      2.000000
 -0.023327  0.121212  0.000000      2.000000
 -0.015552  0.107744  0.000000      2.000000
 -0.007776  0.094276  0.000000      2.000000
  0.000000  0.080808  0.000000      2.000000
  0.007776  0.067340  0.000000      2.000000
  0.015552  0.053872  0.000000      2.000000
  0.031103  0.053872  0.000000      2.000000
  0.038879  0.040404  0.000000      2.000000
  0.046655  0.026936  0.000000      2.000000
  0.054430  0.013468  0.000000      2.000000
  0.062206  0.000000  0.000000      2.000000
  0.069982 -0.013468  0.000000      2.000000
  0.077758 -0.026936  0.000000      2.000000
  0.085533 -0.040404  0.000000      2.000000
  0.093309 -0.053872  0.000000      2.000000
  0.101085 -0.067340  0.000000      2.000000
  0.108861 -0.080808  0.000000      2.000000
  0.116636 -0.094276  0.000000      2.000000
  0.124412 -0.107744  0.000000      2.000000
  0.132188 -0.121212  0.000000      2.000000
  0.139964 -0.134680  0.000000      2.000000
  0.147739 -0.148148  0.000000      2.000000
 -0.077758  0.242424  0.000000      2.000000
 -0.069982  0.228956  0.000000      2.000000
 -0.062206  0.215488  0.000000      2.000000
 -0.054430  0.202020  0.000000      2.000000
 -0.046655  0.188552  0.000000      2.000000
 -0.038879  0.175084  0.000000      2.000000
 -0.031103  0.161616  0.000000      2.000000
 -0.023327  0.148148  0.000000      2.000000
 -0.015552  0.134680  0.000000      2.000000
 -0.007776  0.121212  0.000000      2.000000
  0.000000  0.107744  0.000000      2.000000
  0.007776  0.094276  0.000000      2.000000
  0.015552  0.080808  0.000000      2.000000
  0.023327  0.067340  0.000000      2.000000
  0.038879  0.067340  0.000000      2.000000
  0.046655  0.053872  0.000000      2.000000
  0.054430  0.040404  0.000000      2.000000
  0.062206  0.026936  0.000000      2.000000
  0.069982  0.013468  0.000000      2.000000
  0.077758  0.000000  0.000000      2.000000
  0.085533 -0.013468  0.000000      2.000000
  0.093309 -0.026936  0.000000      2.000000
  0.101085 -0.040404  0.000000      2.000000
  0.108861 -0.053872  0.000000      2.000000
  0.116636 -0.067340  0.000000      2.000000
  0.124412 -0.080808  0.000000      2.000000
  0.132188 -0.094276  0.000000      2.000000
  0.139964 -0.107744  0.000000      2.000000
  0.147739 -0.121212  0.000000      2.000000
  0.155515 -0.134680  0.000000      2.000000
 -0.069982  0.255892  0.000000      2.000000
 -0.062206  0.242424  0.000000      2.000000
 -0.054430  0.228956  0.000000      2.000000
 -0.046655  0.215488  0.000000      2.000000
 -0.038879  0.202020  0.000000      2.000000
 -0.031103  0.188552  0.000000      2.000000
 -0.023327  0.175084  0.000000      2.000000
 -0.015552  0.161616  0.000000      2.000000
 -0.007776  0.148148  0.000000      2.000000
  0.000000  0.134680  0.000000      2.000000
  0.007776  0.121212  0.000000      2.000000
  0.015552  0.107744  0.000000      2.000000
  0.023327  0.094276  0.000000      2.000000
  0.031103  0.080808  0.000000      2.000000
  0.046655  0.080808  0.000000      2.000000
  0.054430  0.067340  0.000000      2.000000
  0.062206  0.053872  0.000000      2.000000
  0.069982  0.040404  0.000000      2.000000
  0.077758  0.026936  0.000000      2.000000
  0.085533  0.013468  0.000000      2.000000
  0.093309  0.000000  0.000000      2.000000
  0.101085 -0.013468  0.000000      2.000000
  0.108861 -0.026936  0.000000      2.000000
  0.116636 -0.040404  0.000000      2.000000
  0.124412 -0.053872  0.000000      2.000000
  0.132188 -0.067340  0.000000      2.000000
  0.139964 -0.080808  0.000000      2.000000
  0.147739 -0.094276  0.000000      2.000000
  0.155515 -0.107744  0.000000      2.000000
  0.163291 -0.121212  0.000000      2.000000
 -0.062206  0.269360  0.000000      2.000000
 -0.054430  0.255892  0.000000      2.000000
 -0.046655  0.242424  0.000000      2.000000
 -0.038879  0.228956  0.000000      2.000000
 -0.031103  0.215488  0.000000      2.000000
 -0.023327  0.202020  0.000000      2.000000
 -0.015552  0.188552  0.000000      2.000000
 -0.007776  0.175084  0.000000      2.000000
  0.000000  0.161616  0.000000      2.000000
  0.007776  0.148148  0.000000      2.000000
  0.015552  0.134680  0.000000      2.000000
  0.023327  0.121212  0.000000      2.000000
  0.031103  0.107744  0.000000      2.000000
  0.038879  0.094276  0.000000      2.000000
  0.054430  0.094276  0.000000      2.000000
  0.062206  0.080808  0.000000      2.000000
  0.069982  0.067340  0.000000      2.000000
  0.077758  0.053872  0.000000      2.000000
  0.085533  0.040404  0.000000      2.000000
  0.093309  0.026936  0.000000      2.000000
  0.101085  0.013468  0.000000      2.000000
  0.108861  0.000000  0.000000      2.000000
  0.116636 -0.013468  0.000000      2.000000
  0.124412 -0.026936  0.000000      2.000000
  0.132188 -0.040404  0.000000      2.000000
  0.139964 -0.053872  0.000000      2.000000
  0.147739 -0.067340  0.000000      2.000000
  0.155515 -0.080808  0.000000      2.000000
  0.163291 -0.094276  0.000000      2.000000
  0.171067 -0.107744  0.000000      2.000000
 -0.054430  0.282828  0.000000      2.000000
 -0.046655  0.269360  0.000000      2.000000
 -0.038879  0.255892  0.000000      2.000000
 -0.031103  0.242424  0.000000      2.000000
 -0.023327  0.228956  0.000000      2.000000
 -0.015552  0.215488  0.000000      2.000000
 -0.007776  0.202020  0.000000      2.000000
  0.000000  0.188552  0.000000      2.000000
  0.007776  0.175084  0.000000      2.000000
  0.015552  0.161616  0.000000      2.000000
  0.023327  0.148148  0.000000      2.000000
  0.031103  0.134680  0.000000      2.000000
  0.038879  0.121212  0.000000      2.000000
  0.046655  0.107744  0.000000      2.000000
  0.062206  0.107744  0.000000      2.000000
  0.069982  0.094276  0.000000      2.000000
  0.077758  0.080808  0.000000      2.000000
  0.085533  0.067340  0.000000      2.000000
  0.093309  0.053872  0.000000      2.000000
  0.101085  0.040404  0.000000      2.000000
  0.108861  0.026936  0.000000      2.000000
  0.116636  0.013468  0.000000      2.000000
  0.124412  0.000000  0.000000      2.000000
  0.132188 -0.013468  0.000000      2.000000
  0.139964 -0.026936  0.000000      2.000000
  0.147739 -0.040404  0.000000      2.000000
  0.155515 -0.053872  0.000000      2.000000
  0.163291 -0.067340  0.000000      2.000000
  0.171067 -0.080808  0.000000      2.000000
  0.178843 -0.094276  0.000000      2.000000
 -0.046655  0.296296  0.000000      2.000000
 -0.038879  0.282828  0.000000      2.000000
 -0.031103  0.269360  0.000000      2.000000
 -0.023327  0.255892  0.000000      2.000000
 -0.015552  0.242424  0.000000      2.000000
 -0.007776  0.228956  0.000000      2.000000
  0.000000  0.215488  0.000000      2.000000
  0.007776  0.202020  0.000000      2.000000
  0.015552  0.188552  0.000000      2.000000
  0.023327  0.175084  0.000000      2.000000
  0.031103  0.161616  0.000000      2.000000
  0.038879  0.148148  0.000000      2.000000
  0.046655  0.134680  0.000000      2.000000
  0.054430  0.121212  0.000000      2.000000
  0.069982  0.121212  0.000000      2.000000
  0.077758  0.107744  0.000000      2.000000
  0.085533  0.094276  0.000000      2.000000
  0.093309  0.080808  0.000000      2.000000
  0.101085  0.067340  0.000000      2.000000
  0.108861  0.053872  0.000000      2.000000
  0.116636  0.040404  0.000000      2.000000
  0.124412  0.026936  0.000000      2.000000
  0.132188  0.013468  0.000000      2.000000
  0.139964  0.000000  0.000000      2.000000
  0.147739 -0.013468  0.000000      2.000000
  0.155515 -0.026936  0.000000      2.000000
  0.163291 -0.040404  0.000000      2.000000
  0.171067 -0.053872  0.000000      2.000000
  0.178843 -0.067340  0.000000      2.000000
  0.186618 -0.080808  0.000000      2.000000
 -0.038879  0.309764  0.000000      2.000000
 -0.031103  0.296296  0.000000      2.000000
 -0.023327  0.282828  0.000000      2.000000
 -0.015552  0.269360  0.000000      2.000000
 -0.007776  0.255892  0.000000      2.000000
  0.000000  0.242424  0.000000      2.000000
  0.007776  0.228956  0.000000      2.000000
  0.015552  0.215488  0.000000      2.000000
  0.023327  0.202020  0.000000      2.000000
  0.031103  0.188552  0.000000      2.000000
  0.038879  0.175084  0.000000      2.000000
  0.046655  0.161616  0.000000      2.000000
  0.054430  0.148148  0.000000      2.000000
  0.062206  0.134680  0.000000      2.000000
  0.077758  0.134680  0.000000      2.000000
  0.085533  0.121212  0.000000      2.000000
  0.093309  0.107744  0.000000      2.000000
  0.101085  0.094276  0.000000      2.000000
  0.108861  0.080808  0.000000      2.000000
  0.116636  0.067340  0.000000      2.000000
  0.124412  0.053872  0.000000      2.000000
  0.132188  0.040404  0.000000      2.000000
  0.139964  0.026936  0.000000      2.000000
  0.147739  0.013468  0.000000      2.000000
  0.155515  0.000000  0.000000      2.000000
  0.163291 -0.013468  0.000000      2.000000
  0.171067 -0.026936  0.000000      2.000000
  0.178843 -0.040404  0.000000      2.000000
  0.186618 -0.053872  0.000000      2.000000
  0.194394 -0.067340  0.000000      2.000000
 -0.031103  0.323232  0.000000      2.000000
 -0.023327  0.309764  0.000000      2.000000
 -0.015552  0.296296  0.000000      2.000000
 -0.007776  0.282828  0.000000      2.000000
  0.000000  0.269360  0.000000      2.000000
  0.007776  0.255892  0.000000      2.000000
  0.015552  0.242424  0.000000      2.000000
  0.023327  0.228956  0.000000      2.000000
  0.031103  0.215488  0.000000      2.000000
  0.038879  0.202020  0.000000      2.000000
  0.046655  0.188552  0.000000      2.000000
  0.054430  0.175084  0.000000      2.000000
  0.062206  0.161616  0.000000      2.000000
  0.069982  0.148148  0.000000      2.000000
  0.085533  0.148148  0.000000      2.000000
  0.093309  0.134680  0.000000      2.000000
  0.101085  0.121212  0.000000      2.000000
  0.108861  0.107744  0.000000      2.000000
  0.116636  0.094276  0.000000      2.000000
  0.124412  0.080808  0.000000      2.000000
  0.132188  0.067340  0.000000      2.000000
  0.139964  0.053872  0.000000      2.000000
  0.147739  0.040404  0.000000      2.000000
  0.155515  0.026936  0.000000      2.000000
  0.163291  0.013468  0.000000      2.000000
  0.171067  0.000000  0.000000      2.000000
  0.178843 -0.013468  0.000000      2.000000
  0.186618 -0.026936  0.000000      2.000000
  0.194394 -0.040404  0.000000      2.000000
  0.202170 -0.053872  0.000000      2.000000
 -0.023327  0.336700  0.000000      2.000000
 -0.015552  0.323232  0.000000      2.000000
 -0.007776  0.309764  0.000000      2.000000
  0.000000  0.296296  0.000000      2.000000
  0.007776  0.282828  0.000000      2.000000
  0.015552  0.269360  0.000000      2.000000
  0.023327  0.255892  0.000000      2.000000
  0.031103  0.242424  0.000000      2.000000
  0.038879  0.228956  0.000000      2.000000
  0.046655  0.215488  0.000000      2.000000
  0.054430  0.202020  0.000000      2.000000
  0.062206  0.188552  0.000000      2.000000
  0.069982  0.175084  0.000000      2.000000
  0.077758  0.161616  0.000000      2.000000
  0.093309  0.161616  0.000000      2.000000
  0.101085  0.148148  0.000000      2.000000
  0.108861  0.134680  0.000000      2.000000
  0.116636  0.121212  0.000000      2.000000
  0.124412  0.107744  0.000000      2.000000
  0.132188  0.094276  0.000000      2.000000
  0.139964  0.080808  0.000000      2.000000
  0.147739  0.067340  0.000000      2.000000
  0.155515  0.053872  0.000000      2.000000
  0.163291  0.040404  0.000000      2.000000
  0.171067  0.026936  0.000000      2.000000
  0.178843  0.013468  0.000000      2.000000
  0.186618  0.000000  0.000000      2.000000
  0.194394 -0.013468  0.000000      2.000000
  0.202170 -0.026936  0.000000      2.000000
  0.209946 -0.040404  0.000000      2.000000
 -0.015552  0.350168  0.000000      2.000000
 -0.007776  0.336700  0.000000      2.000000
  0.000000  0.323232  0.000000      2.000000
  0.007776  0.309764  0.000000      2.000000
  0.015552  0.296296  0.000000      2.000000
  0.023327  0.282828  0.000000      2.000000
  0.031103  0.269360  0.000000      2.000000
  0.038879  0.255892  0.000000      2.000000
  0.046655  0.242424  0.000000      2.000000
  0.054430  0.228956  0.000000      2.000000
  0.062206  0.215488  0.000000      2.000000
  0.069982  0.202020  0.000000      2.000000
  0.077758  0.188552  0.000000      2.000000
  0.085533  0.175084  0.000000      2.000000
  0.101085  0.175084  0.000000      2.000000
  0.108861  0.161616  0.000000      2.000000
  0.116636  0.148148  0.000000      2.000000
  0.124412  0.134680  0.000000      2.000000
  0.132188  0.121212  0.000000      2.000000
  0.139964  0.107744  0.000000      2.000000
  0.147739  0.094276  0.000000      2.000000
  0.155515  0.080808  0.000000      2.000000
  0.163291  0.067340  0.000000      2.000000
  0.171067  0.053872  0.000000      2.000000
  0.178843  0.040404  0.000000      2.000000
  0.186618  0.026936  0.000000      2.000000
  0.194394  0.013468  0.000000      2.000000
  0.202170  0.000000  0.000000      2.000000
  0.209946 -0.013468  0.000000      2.000000
  0.217721 -0.026936  0.000000      2.000000
 -0.007776  0.363636  0.000000      2.000000
  0.000000  0.350168  0.000000      2.000000
  0.007776  0.336700  0.000000      2.000000
  0.015552  0.323232  0.000000      2.000000
  0.023327  0.309764  0.000000      2.000000
  0.031103  0.296296  0.000000      2.000000
  0.038879  0.282828  0.000000      2.000000
  0.046655  0.269360  0.000000      2.000000
  0.054430  0.255892  0.000000      2.000000
  0.062206  0.242424  0.000000      2.000000
  0.069982  0.228956  0.000000      2.000000
  0.077758  0.215488  0.000000      2.000000
  0.085533  0.202020  0.000000      2.000000
  0.093309  0.188552  0.000000      2.000000
  0.108861  0.188552  0.000000      2.000000
  0.116636  0.175084  0.000000      2.000000
  0.124412  0.161616  0.000000      2.000000
  0.132188  0.148148  0.000000      2.000000
  0.139964  0.134680  0.000000      2.000000
  0.147739  0.121212  0.000000      2.000000
  0.155515  0.107744  0.000000      2.000000
  0.163291  0.094276  0.000000      2.000000
  0.171067  0.080808  0.000000      2.000000
  0.178843  0.067340  0.000000      2.000000
  0.186618  0.053872  0.000000      2.000000
  0.194394  0.040404  0.000000      2.000000
  0.202170  0.026936  0.000000      2.000000
  0.209946  0.013468  0.000000      2.000000
  0.217721  0.000000  0.000000      2.000000
  0.225497 -0.013468  0.000000      2.000000
  0.000000  0.377104  0.000000      2.000000
  0.007776  0.363636  0.000000      2.000000
  0.015552  0.350168  0.000000      2.000000
  0.023327  0.336700  0.000000      2.000000
  0.031103  0.323232  0.000000      2.000000
  0.038879  0.309764  0.000000      2.000000
  0.046655  0.296296  0.000000      2.000000
  0.054430  0.282828  0.000000      2.000000
  0.062206  0.269360  0.000000      2.000000
  0.069982  0.255892  0.000000      2.000000
  0.077758  0.242424  0.000000      2.000000
  0.085533  0.228956  0.000000      2.000000
  0.093309  0.215488  0.000000      2.000000
  0.101085  0.202020  0.000000      2.000000
  0.116636  0.202020  0.000000      1.000000
  0.124412  0.188552  0.000000      2.000000
  0.132188  0.175084  0.000000      2.000000
  0.139964  0.161616  0.000000      2.000000
  0.147739  0.148148  0.000000      2.000000
  0.155515  0.134680  0.000000      2.000000
  0.163291  0.121212  0.000000      2.000000
  0.171067  0.107744  0.000000      2.000000
  0.178843  0.094276  0.000000      2.000000
  0.186618  0.080808  0.000000      2.000000
  0.194394  0.067340  0.000000      2.000000
  0.202170  0.053872  0.000000      2.000000
  0.209946  0.040404  0.000000      2.000000
  0.217721  0.026936  0.000000      2.000000
  0.225497  0.013468  0.000000      2.000000
  0.233273  0.000000  0.000000      1.000000
 


--------------------------------------------------------------------------------------------------------




 Dimension of arrays:
   k-points           NKPTS =    452   k-points in BZ     NKDIM =    452   number of bands    NBANDS=      8
   number of dos      NEDOS =    301   number of ions     NIONS =      2
   non local maximal  LDIM  =      4   non local SUM 2l+1 LMDIM =      8
   total plane-waves  NPLWV =  35840
   max r-space proj   IRMAX =      1   max aug-charges    IRDMAX=   4185
   dimension x,y,z NGX =    16 NGY =   16 NGZ =  140
   dimension x,y,z NGXF=    32 NGYF=   32 NGZF=  280
   support grid    NGXF=    32 NGYF=   32 NGZF=  280
   ions per type =               2
 NGX,Y,Z   is equivalent  to a cutoff of  10.75, 10.75, 11.64 a.u.
 NGXF,Y,Z  is equivalent  to a cutoff of  21.49, 21.49, 23.27 a.u.


 I would recommend the setting:
   dimension x,y,z NGX =    16 NGY =   16 NGZ =  130
 SYSTEM =  unknown system                          
 POSCAR =  single layer graphene                   

 Startparameter for this run:
   NWRITE =      2    write-flag & timer
   PREC   = accura    normal or accurate (medium, high low for compatibility)
   ISTART =      1    job   : 0-new  1-cont  2-samecut
   ICHARG =     11    charge: 1-file 2-atom 10-const
   ISPIN  =      1    spin polarized calculation?
   LNONCOLLINEAR =      F non collinear calculations
   LSORBIT =      F    spin-orbit coupling
   INIWAV =      1    electr: 0-lowe 1-rand  2-diag
   LASPH  =      F    aspherical Exc in radial PAW
   METAGGA=      F    non-selfconsistent MetaGGA calc.

 Electronic Relaxation 1
   ENCUT  =  400.0 eV  29.40 Ry    5.42 a.u.   4.04  4.04 32.61*2*pi/ulx,y,z
   ENINI  =  400.0     initial cutoff
   ENAUG  =  644.9 eV  augmentation charge cutoff
   NELM   =     60;   NELMIN=  2; NELMDL=  0     # of ELM steps 
   EDIFF  = 0.1E-06   stopping-criterion for ELM
   LREAL  =      F    real-space projection
   NLSPLINE    = F    spline interpolate recip. space projectors
   LCOMPAT=      F    compatible to vasp.4.4
   GGA_COMPAT  = T    GGA compatible to vasp.4.4-vasp.4.6
   LMAXPAW     = -100 max onsite density
   LMAXMIX     =    2 max onsite mixed and CHGCAR
   VOSKOWN=      0    Vosko Wilk Nusair interpolation
   ROPT   =    0.00000
 Ionic relaxation
   EDIFFG = 0.1E-05   stopping-criterion for IOM
   NSW    =      0    number of steps for IOM
   NBLOCK =      1;   KBLOCK =      1    inner block; outer block 
   IBRION =     -1    ionic relax: 0-MD 1-quasi-New 2-CG
   NFREE  =      0    steps in history (QN), initial steepest desc. (CG)
   ISIF   =      2    stress and relaxation
   IWAVPR =     10    prediction:  0-non 1-charg 2-wave 3-comb
   ISYM   =      0    0-nonsym 1-usesym 2-fastsym
   LCORR  =      T    Harris-Foulkes like correction to forces

   POTIM  = 0.5000    time-step for ionic-motion
   TEIN   =    0.0    initial temperature
   TEBEG  =    0.0;   TEEND  =   0.0 temperature during run
   SMASS  =  -3.00    Nose mass-parameter (am)
   estimated Nose-frequenzy (Omega)   =  0.10E-29 period in steps =****** mass=  -0.140E-27a.u.
   SCALEE = 1.0000    scale energy and forces
   NPACO  =    256;   APACO  = 16.0  distance and # of slots for P.C.
   PSTRESS=    0.0 pullay stress

  Mass of Ions in am
   POMASS =  12.01
  Ionic Valenz
   ZVAL   =   4.00
  Atomic Wigner-Seitz radii
   RWIGS  =  -1.00
  virtual crystal weights 
   VCA    =   1.00
   NELECT =       8.0000    total number of electrons
   NUPDOWN=      -1.0000    fix difference up-down

 DOS related values:
   EMIN   =  10.00;   EMAX   =-10.00  energy-range for DOS
   EFERMI =   0.00
   ISMEAR =     1;   SIGMA  =   0.20  broadening in eV -4-tet -1-fermi 0-gaus

 Electronic relaxation 2 (details)
   IALGO  =     68    algorithm
   LDIAG  =      T    sub-space diagonalisation (order eigenvalues)
   LSUBROT=      F    optimize rotation matrix (better conditioning)
   TURBO    =      0    0=normal 1=particle mesh
   IRESTART =      0    0=no restart 2=restart with 2 vectors
   NREBOOT  =      0    no. of reboots
   NMIN     =      0    reboot dimension
   EREF     =   0.00    reference energy to select bands
   IMIX   =      4    mixing-type and parameters
     AMIX     =   0.40;   BMIX     =  1.00
     AMIX_MAG =   1.60;   BMIX_MAG =  1.00
     AMIN     =   0.10
     WC   =   100.;   INIMIX=   1;  MIXPRE=   1;  MAXMIX= -45

 Intra band minimization:
   WEIMIN = 0.0000     energy-eigenvalue tresh-hold
   EBREAK =  0.31E-08  absolut break condition
   DEPER  =   0.30     relativ break condition  

   TIME   =   0.40     timestep for ELM

  volume/ion in A,a.u.               =      53.05       358.00
  Fermi-wavevector in a.u.,A,eV,Ry     =   0.691620  1.306973  6.508195  0.478339
  Thomas-Fermi vector in A             =   1.773323

 Write flags
   LWAVE  =      T    write WAVECAR
   LCHARG =      T    write CHGCAR
   LVTOT  =      F    write LOCPOT, total local potential
   LVHAR  =      T    write LOCPOT, Hartree potential only
   LELF   =      F    write electronic localiz. function (ELF)
   LORBIT =      0    0 simple, 1 ext, 2 COOP (PROOUT)


 Dipole corrections
   LMONO  =      F    monopole corrections only (constant potential shift)
   LDIPOL =      T    correct potential (dipole corrections)
   IDIPOL =      3    1-x, 2-y, 3-z, 4-all directions 
   EPSILON=  1.0000000 bulk dielectric constant

 Exchange correlation treatment:
   GGA     =    --    GGA type
   LEXCH   =     8    internal setting for exchange type
   VOSKOWN=      0    Vosko Wilk Nusair interpolation
   LHFCALC =     F    Hartree Fock is set to
   LHFONE  =     F    Hartree Fock one center treatment
   AEXX    =    0.0000 exact exchange contribution

 Linear response parameters
   LEPSILON=     F    determine dielectric tensor
   LRPA    =     F    only Hartree local field effects (RPA)
   LNABLA  =     F    use nabla operator in PAW spheres
   LVEL    =     F    velocity operator in full k-point grid
   LINTERFAST=   F  fast interpolation
   KINTER  =     0    interpolate to denser k-point grid
   CSHIFT  =0.1000    complex shift for real part using Kramers Kronig
   OMEGAMAX=  -1.0    maximum frequency
   DEG_THRESHOLD= 0.2000000E-02 threshold for treating states as degnerate
   RTIME   =    0.100 relaxation time in fs

 Orbital magnetization related:
   ORBITALMAG=     F  switch on orbital magnetization
   LCHIMAG   =     F  perturbation theory with respect to B field
   DQ        =  0.001000  dq finite difference perturbation B field



--------------------------------------------------------------------------------------------------------


 Static calculation
 charge density and potential remain constant during run
 non-spin polarized calculation
 RMM-DIIS sequential band-by-band and
  variant of blocked Davidson during initial phase
 perform sub-space diagonalisation
    before iterative eigenvector-optimisation
 no mixing
 using additional bands            4
 reciprocal scheme for non local part
 use partial core corrections
 calculate Harris-corrections to forces   (improved forces if not selfconsistent)
 use gradient corrections 
 WARNING: stress and forces are not correct
  (second derivative of E(xc) not defined)
 use of overlap-Matrix (Vanderbilt PP)
 Methfessel and Paxton  Order N= 1 SIGMA  =   0.20


--------------------------------------------------------------------------------------------------------


  energy-cutoff  :      400.00
  volume of cell :      106.10
      direct lattice vectors                 reciprocal lattice vectors
     2.143412872 -1.237500000  0.000000000     0.233272836 -0.404040404  0.000000000
     2.143412872  1.237500000  0.000000000     0.233272836  0.404040404 -0.000000000
     0.000000000  0.000000000 20.000000000    -0.000000000  0.000000000  0.050000000

  length of vectors
     2.474999998  2.474999998 20.000000000     0.466545672  0.466545672  0.050000000



 old parameters found on file WAVECAR:
  energy-cutoff  :      400.00
  volume of cell :      106.10
      direct lattice vectors                 reciprocal lattice vectors
     2.143412872 -1.237500000  0.000000000     0.233272836 -0.404040404  0.000000000
     2.143412872  1.237500000  0.000000000     0.233272836  0.404040404 -0.000000000
     0.000000000  0.000000000 20.000000000    -0.000000000  0.000000000  0.050000000

  length of vectors


 k-points in units of 2pi/SCALE and weight: Gamma-centered k-grid                   
   0.00000000  0.00000000  0.00000000       0.001
   0.00777576 -0.01346801  0.00000000       0.002
   0.01555152 -0.02693603  0.00000000       0.002
   0.02332728 -0.04040404  0.00000000       0.002
   0.03110304 -0.05387205  0.00000000       0.002
   0.03887881 -0.06734007  0.00000000       0.002
   0.04665457 -0.08080808  0.00000000       0.002
   0.05443033 -0.09427609  0.00000000       0.002
   0.06220609 -0.10774411  0.00000000       0.002
   0.06998185 -0.12121212  0.00000000       0.002
   0.07775761 -0.13468013  0.00000000       0.002
   0.08553337 -0.14814815  0.00000000       0.002
   0.09330913 -0.16161616  0.00000000       0.002
   0.10108490 -0.17508418  0.00000000       0.002
   0.10886066 -0.18855219  0.00000000       0.002
   0.11663642 -0.20202020  0.00000000       0.001
   0.00777576  0.01346801  0.00000000       0.002
   0.01555152  0.00000000  0.00000000       0.002
   0.02332728 -0.01346801  0.00000000       0.002
   0.03110304 -0.02693603  0.00000000       0.002
   0.03887881 -0.04040404  0.00000000       0.002
   0.04665457 -0.05387205  0.00000000       0.002
   0.05443033 -0.06734007  0.00000000       0.002
   0.06220609 -0.08080808  0.00000000       0.002
   0.06998185 -0.09427609  0.00000000       0.002
   0.07775761 -0.10774411  0.00000000       0.002
   0.08553337 -0.12121212  0.00000000       0.002
   0.09330913 -0.13468013  0.00000000       0.002
   0.10108490 -0.14814815  0.00000000       0.002
   0.10886066 -0.16161616  0.00000000       0.002
   0.11663642 -0.17508418  0.00000000       0.002
   0.12441218 -0.18855219  0.00000000       0.002
  -0.10108490  0.20202020  0.00000000       0.002
  -0.09330913  0.18855219  0.00000000       0.002
  -0.08553337  0.17508418  0.00000000       0.002
  -0.07775761  0.16161616  0.00000000       0.002
  -0.06998185  0.14814815  0.00000000       0.002
  -0.06220609  0.13468013  0.00000000       0.002
  -0.05443033  0.12121212  0.00000000       0.002
  -0.04665457  0.10774411  0.00000000       0.002
  -0.03887881  0.09427609  0.00000000       0.002
  -0.03110304  0.08080808  0.00000000       0.002
  -0.02332728  0.06734007  0.00000000       0.002
  -0.01555152  0.05387205  0.00000000       0.002
  -0.00777576  0.04040404  0.00000000       0.002
   0.00000000  0.02693603  0.00000000       0.002
   0.01555152  0.02693603  0.00000000       0.002
   0.02332728  0.01346801  0.00000000       0.002
   0.03110304  0.00000000  0.00000000       0.002
   0.03887881 -0.01346801  0.00000000       0.002
   0.04665457 -0.02693603  0.00000000       0.002
   0.05443033 -0.04040404  0.00000000       0.002
   0.06220609 -0.05387205  0.00000000       0.002
   0.06998185 -0.06734007  0.00000000       0.002
   0.07775761 -0.08080808  0.00000000       0.002
   0.08553337 -0.09427609  0.00000000       0.002
   0.09330913 -0.10774411  0.00000000       0.002
   0.10108490 -0.12121212  0.00000000       0.002
   0.10886066 -0.13468013  0.00000000       0.002
   0.11663642 -0.14814815  0.00000000       0.002
   0.12441218 -0.16161616  0.00000000       0.002
   0.13218794 -0.17508418  0.00000000       0.002
  -0.09330913  0.21548822  0.00000000       0.002
  -0.08553337  0.20202020  0.00000000       0.002
  -0.07775761  0.18855219  0.00000000       0.002
  -0.06998185  0.17508418  0.00000000       0.002
  -0.06220609  0.16161616  0.00000000       0.002
  -0.05443033  0.14814815  0.00000000       0.002
  -0.04665457  0.13468013  0.00000000       0.002
  -0.03887881  0.12121212  0.00000000       0.002
  -0.03110304  0.10774411  0.00000000       0.002
  -0.02332728  0.09427609  0.00000000       0.002
  -0.01555152  0.08080808  0.00000000       0.002
  -0.00777576  0.06734007  0.00000000       0.002
   0.00000000  0.05387205  0.00000000       0.002
   0.00777576  0.04040404  0.00000000       0.002
   0.02332728  0.04040404  0.00000000       0.002
   0.03110304  0.02693603  0.00000000       0.002
   0.03887881  0.01346801  0.00000000       0.002
   0.04665457  0.00000000  0.00000000       0.002
   0.05443033 -0.01346801  0.00000000       0.002
   0.06220609 -0.02693603  0.00000000       0.002
   0.06998185 -0.04040404  0.00000000       0.002
   0.07775761 -0.05387205  0.00000000       0.002
   0.08553337 -0.06734007  0.00000000       0.002
   0.09330913 -0.08080808  0.00000000       0.002
   0.10108490 -0.09427609  0.00000000       0.002
   0.10886066 -0.10774411  0.00000000       0.002
   0.11663642 -0.12121212  0.00000000       0.002
   0.12441218 -0.13468013  0.00000000       0.002
   0.13218794 -0.14814815  0.00000000       0.002
   0.13996370 -0.16161616  0.00000000       0.002
  -0.08553337  0.22895623  0.00000000       0.002
  -0.07775761  0.21548822  0.00000000       0.002
  -0.06998185  0.20202020  0.00000000       0.002
  -0.06220609  0.18855219  0.00000000       0.002
  -0.05443033  0.17508418  0.00000000       0.002
  -0.04665457  0.16161616  0.00000000       0.002
  -0.03887881  0.14814815  0.00000000       0.002
  -0.03110304  0.13468013  0.00000000       0.002
  -0.02332728  0.12121212  0.00000000       0.002
  -0.01555152  0.10774411  0.00000000       0.002
  -0.00777576  0.09427609  0.00000000       0.002
   0.00000000  0.08080808  0.00000000       0.002
   0.00777576  0.06734007  0.00000000       0.002
   0.01555152  0.05387205  0.00000000       0.002
   0.03110304  0.05387205  0.00000000       0.002
   0.03887881  0.04040404  0.00000000       0.002
   0.04665457  0.02693603  0.00000000       0.002
   0.05443033  0.01346801  0.00000000       0.002
   0.06220609  0.00000000  0.00000000       0.002
   0.06998185 -0.01346801  0.00000000       0.002
   0.07775761 -0.02693603  0.00000000       0.002
   0.08553337 -0.04040404  0.00000000       0.002
   0.09330913 -0.05387205  0.00000000       0.002
   0.10108490 -0.06734007  0.00000000       0.002
   0.10886066 -0.08080808  0.00000000       0.002
   0.11663642 -0.09427609  0.00000000       0.002
   0.12441218 -0.10774411  0.00000000       0.002
   0.13218794 -0.12121212  0.00000000       0.002
   0.13996370 -0.13468013  0.00000000       0.002
   0.14773946 -0.14814815  0.00000000       0.002
  -0.07775761  0.24242424  0.00000000       0.002
  -0.06998185  0.22895623  0.00000000       0.002
  -0.06220609  0.21548822  0.00000000       0.002
  -0.05443033  0.20202020  0.00000000       0.002
  -0.04665457  0.18855219  0.00000000       0.002
  -0.03887881  0.17508418  0.00000000       0.002
  -0.03110304  0.16161616  0.00000000       0.002
  -0.02332728  0.14814815  0.00000000       0.002
  -0.01555152  0.13468013  0.00000000       0.002
  -0.00777576  0.12121212  0.00000000       0.002
   0.00000000  0.10774411  0.00000000       0.002
   0.00777576  0.09427609  0.00000000       0.002
   0.01555152  0.08080808  0.00000000       0.002
   0.02332728  0.06734007  0.00000000       0.002
   0.03887881  0.06734007  0.00000000       0.002
   0.04665457  0.05387205  0.00000000       0.002
   0.05443033  0.04040404  0.00000000       0.002
   0.06220609  0.02693603  0.00000000       0.002
   0.06998185  0.01346801  0.00000000       0.002
   0.07775761  0.00000000  0.00000000       0.002
   0.08553337 -0.01346801  0.00000000       0.002
   0.09330913 -0.02693603  0.00000000       0.002
   0.10108490 -0.04040404  0.00000000       0.002
   0.10886066 -0.05387205  0.00000000       0.002
   0.11663642 -0.06734007  0.00000000       0.002
   0.12441218 -0.08080808  0.00000000       0.002
   0.13218794 -0.09427609  0.00000000       0.002
   0.13996370 -0.10774411  0.00000000       0.002
   0.14773946 -0.12121212  0.00000000       0.002
   0.15551522 -0.13468013  0.00000000       0.002
  -0.06998185  0.25589226  0.00000000       0.002
  -0.06220609  0.24242424  0.00000000       0.002
  -0.05443033  0.22895623  0.00000000       0.002
  -0.04665457  0.21548822  0.00000000       0.002
  -0.03887881  0.20202020  0.00000000       0.002
  -0.03110304  0.18855219  0.00000000       0.002
  -0.02332728  0.17508418  0.00000000       0.002
  -0.01555152  0.16161616  0.00000000       0.002
  -0.00777576  0.14814815  0.00000000       0.002
   0.00000000  0.13468013  0.00000000       0.002
   0.00777576  0.12121212  0.00000000       0.002
   0.01555152  0.10774411  0.00000000       0.002
   0.02332728  0.09427609  0.00000000       0.002
   0.03110304  0.08080808  0.00000000       0.002
   0.04665457  0.08080808  0.00000000       0.002
   0.05443033  0.06734007  0.00000000       0.002
   0.06220609  0.05387205  0.00000000       0.002
   0.06998185  0.04040404  0.00000000       0.002
   0.07775761  0.02693603  0.00000000       0.002
   0.08553337  0.01346801  0.00000000       0.002
   0.09330913  0.00000000  0.00000000       0.002
   0.10108490 -0.01346801  0.00000000       0.002
   0.10886066 -0.02693603  0.00000000       0.002
   0.11663642 -0.04040404  0.00000000       0.002
   0.12441218 -0.05387205  0.00000000       0.002
   0.13218794 -0.06734007  0.00000000       0.002
   0.13996370 -0.08080808  0.00000000       0.002
   0.14773946 -0.09427609  0.00000000       0.002
   0.15551522 -0.10774411  0.00000000       0.002
   0.16329099 -0.12121212  0.00000000       0.002
  -0.06220609  0.26936027  0.00000000       0.002
  -0.05443033  0.25589226  0.00000000       0.002
  -0.04665457  0.24242424  0.00000000       0.002
  -0.03887881  0.22895623  0.00000000       0.002
  -0.03110304  0.21548822  0.00000000       0.002
  -0.02332728  0.20202020  0.00000000       0.002
  -0.01555152  0.18855219  0.00000000       0.002
  -0.00777576  0.17508418  0.00000000       0.002
   0.00000000  0.16161616  0.00000000       0.002
   0.00777576  0.14814815  0.00000000       0.002
   0.01555152  0.13468013  0.00000000       0.002
   0.02332728  0.12121212  0.00000000       0.002
   0.03110304  0.10774411  0.00000000       0.002
   0.03887881  0.09427609  0.00000000       0.002
   0.05443033  0.09427609  0.00000000       0.002
   0.06220609  0.08080808  0.00000000       0.002
   0.06998185  0.06734007  0.00000000       0.002
   0.07775761  0.05387205  0.00000000       0.002
   0.08553337  0.04040404  0.00000000       0.002
   0.09330913  0.02693603  0.00000000       0.002
   0.10108490  0.01346801  0.00000000       0.002
   0.10886066  0.00000000  0.00000000       0.002
   0.11663642 -0.01346801  0.00000000       0.002
   0.12441218 -0.02693603  0.00000000       0.002
   0.13218794 -0.04040404  0.00000000       0.002
   0.13996370 -0.05387205  0.00000000       0.002
   0.14773946 -0.06734007  0.00000000       0.002
   0.15551522 -0.08080808  0.00000000       0.002
   0.16329099 -0.09427609  0.00000000       0.002
   0.17106675 -0.10774411  0.00000000       0.002
  -0.05443033  0.28282828  0.00000000       0.002
  -0.04665457  0.26936027  0.00000000       0.002
  -0.03887881  0.25589226  0.00000000       0.002
  -0.03110304  0.24242424  0.00000000       0.002
  -0.02332728  0.22895623  0.00000000       0.002
  -0.01555152  0.21548822  0.00000000       0.002
  -0.00777576  0.20202020  0.00000000       0.002
   0.00000000  0.18855219  0.00000000       0.002
   0.00777576  0.17508418  0.00000000       0.002
   0.01555152  0.16161616  0.00000000       0.002
   0.02332728  0.14814815  0.00000000       0.002
   0.03110304  0.13468013  0.00000000       0.002
   0.03887881  0.12121212  0.00000000       0.002
   0.04665457  0.10774411  0.00000000       0.002
   0.06220609  0.10774411  0.00000000       0.002
   0.06998185  0.09427609  0.00000000       0.002
   0.07775761  0.08080808  0.00000000       0.002
   0.08553337  0.06734007  0.00000000       0.002
   0.09330913  0.05387205  0.00000000       0.002
   0.10108490  0.04040404  0.00000000       0.002
   0.10886066  0.02693603  0.00000000       0.002
   0.11663642  0.01346801  0.00000000       0.002
   0.12441218  0.00000000  0.00000000       0.002
   0.13218794 -0.01346801  0.00000000       0.002
   0.13996370 -0.02693603  0.00000000       0.002
   0.14773946 -0.04040404  0.00000000       0.002
   0.15551522 -0.05387205  0.00000000       0.002
   0.16329099 -0.06734007  0.00000000       0.002
   0.17106675 -0.08080808  0.00000000       0.002
   0.17884251 -0.09427609  0.00000000       0.002
  -0.04665457  0.29629630  0.00000000       0.002
  -0.03887881  0.28282828  0.00000000       0.002
  -0.03110304  0.26936027  0.00000000       0.002
  -0.02332728  0.25589226  0.00000000       0.002
  -0.01555152  0.24242424  0.00000000       0.002
  -0.00777576  0.22895623  0.00000000       0.002
   0.00000000  0.21548822  0.00000000       0.002
   0.00777576  0.20202020  0.00000000       0.002
   0.01555152  0.18855219  0.00000000       0.002
   0.02332728  0.17508418  0.00000000       0.002
   0.03110304  0.16161616  0.00000000       0.002
   0.03887881  0.14814815  0.00000000       0.002
   0.04665457  0.13468013  0.00000000       0.002
   0.05443033  0.12121212  0.00000000       0.002
   0.06998185  0.12121212  0.00000000       0.002
   0.07775761  0.10774411  0.00000000       0.002
   0.08553337  0.09427609  0.00000000       0.002
   0.09330913  0.08080808  0.00000000       0.002
   0.10108490  0.06734007  0.00000000       0.002
   0.10886066  0.05387205  0.00000000       0.002
   0.11663642  0.04040404  0.00000000       0.002
   0.12441218  0.02693603  0.00000000       0.002
   0.13218794  0.01346801  0.00000000       0.002
   0.13996370  0.00000000  0.00000000       0.002
   0.14773946 -0.01346801  0.00000000       0.002
   0.15551522 -0.02693603  0.00000000       0.002
   0.16329099 -0.04040404  0.00000000       0.002
   0.17106675 -0.05387205  0.00000000       0.002
   0.17884251 -0.06734007  0.00000000       0.002
   0.18661827 -0.08080808  0.00000000       0.002
  -0.03887881  0.30976431  0.00000000       0.002
  -0.03110304  0.29629630  0.00000000       0.002
  -0.02332728  0.28282828  0.00000000       0.002
  -0.01555152  0.26936027  0.00000000       0.002
  -0.00777576  0.25589226  0.00000000       0.002
   0.00000000  0.24242424  0.00000000       0.002
   0.00777576  0.22895623  0.00000000       0.002
   0.01555152  0.21548822  0.00000000       0.002
   0.02332728  0.20202020  0.00000000       0.002
   0.03110304  0.18855219  0.00000000       0.002
   0.03887881  0.17508418  0.00000000       0.002
   0.04665457  0.16161616  0.00000000       0.002
   0.05443033  0.14814815  0.00000000       0.002
   0.06220609  0.13468013  0.00000000       0.002
   0.07775761  0.13468013  0.00000000       0.002
   0.08553337  0.12121212  0.00000000       0.002
   0.09330913  0.10774411  0.00000000       0.002
   0.10108490  0.09427609  0.00000000       0.002
   0.10886066  0.08080808  0.00000000       0.002
   0.11663642  0.06734007  0.00000000       0.002
   0.12441218  0.05387205  0.00000000       0.002
   0.13218794  0.04040404  0.00000000       0.002
   0.13996370  0.02693603  0.00000000       0.002
   0.14773946  0.01346801  0.00000000       0.002
   0.15551522  0.00000000  0.00000000       0.002
   0.16329099 -0.01346801  0.00000000       0.002
   0.17106675 -0.02693603  0.00000000       0.002
   0.17884251 -0.04040404  0.00000000       0.002
   0.18661827 -0.05387205  0.00000000       0.002
   0.19439403 -0.06734007  0.00000000       0.002
  -0.03110304  0.32323232  0.00000000       0.002
  -0.02332728  0.30976431  0.00000000       0.002
  -0.01555152  0.29629630  0.00000000       0.002
  -0.00777576  0.28282828  0.00000000       0.002
   0.00000000  0.26936027  0.00000000       0.002
   0.00777576  0.25589226  0.00000000       0.002
   0.01555152  0.24242424  0.00000000       0.002
   0.02332728  0.22895623  0.00000000       0.002
   0.03110304  0.21548822  0.00000000       0.002
   0.03887881  0.20202020  0.00000000       0.002
   0.04665457  0.18855219  0.00000000       0.002
   0.05443033  0.17508418  0.00000000       0.002
   0.06220609  0.16161616  0.00000000       0.002
   0.06998185  0.14814815  0.00000000       0.002
   0.08553337  0.14814815  0.00000000       0.002
   0.09330913  0.13468013  0.00000000       0.002
   0.10108490  0.12121212  0.00000000       0.002
   0.10886066  0.10774411  0.00000000       0.002
   0.11663642  0.09427609  0.00000000       0.002
   0.12441218  0.08080808  0.00000000       0.002
   0.13218794  0.06734007  0.00000000       0.002
   0.13996370  0.05387205  0.00000000       0.002
   0.14773946  0.04040404  0.00000000       0.002
   0.15551522  0.02693603  0.00000000       0.002
   0.16329099  0.01346801  0.00000000       0.002
   0.17106675  0.00000000  0.00000000       0.002
   0.17884251 -0.01346801  0.00000000       0.002
   0.18661827 -0.02693603  0.00000000       0.002
   0.19439403 -0.04040404  0.00000000       0.002
   0.20216979 -0.05387205  0.00000000       0.002
  -0.02332728  0.33670034  0.00000000       0.002
  -0.01555152  0.32323232  0.00000000       0.002
  -0.00777576  0.30976431  0.00000000       0.002
   0.00000000  0.29629630  0.00000000       0.002
   0.00777576  0.28282828  0.00000000       0.002
   0.01555152  0.26936027  0.00000000       0.002
   0.02332728  0.25589226  0.00000000       0.002
   0.03110304  0.24242424  0.00000000       0.002
   0.03887881  0.22895623  0.00000000       0.002
   0.04665457  0.21548822  0.00000000       0.002
   0.05443033  0.20202020  0.00000000       0.002
   0.06220609  0.18855219  0.00000000       0.002
   0.06998185  0.17508418  0.00000000       0.002
   0.07775761  0.16161616  0.00000000       0.002
   0.09330913  0.16161616  0.00000000       0.002
   0.10108490  0.14814815  0.00000000       0.002
   0.10886066  0.13468013  0.00000000       0.002
   0.11663642  0.12121212  0.00000000       0.002
   0.12441218  0.10774411  0.00000000       0.002
   0.13218794  0.09427609  0.00000000       0.002
   0.13996370  0.08080808  0.00000000       0.002
   0.14773946  0.06734007  0.00000000       0.002
   0.15551522  0.05387205  0.00000000       0.002
   0.16329099  0.04040404  0.00000000       0.002
   0.17106675  0.02693603  0.00000000       0.002
   0.17884251  0.01346801  0.00000000       0.002
   0.18661827  0.00000000  0.00000000       0.002
   0.19439403 -0.01346801  0.00000000       0.002
   0.20216979 -0.02693603  0.00000000       0.002
   0.20994555 -0.04040404  0.00000000       0.002
  -0.01555152  0.35016835  0.00000000       0.002
  -0.00777576  0.33670034  0.00000000       0.002
   0.00000000  0.32323232  0.00000000       0.002
   0.00777576  0.30976431  0.00000000       0.002
   0.01555152  0.29629630  0.00000000       0.002
   0.02332728  0.28282828  0.00000000       0.002
   0.03110304  0.26936027  0.00000000       0.002
   0.03887881  0.25589226  0.00000000       0.002
   0.04665457  0.24242424  0.00000000       0.002
   0.05443033  0.22895623  0.00000000       0.002
   0.06220609  0.21548822  0.00000000       0.002
   0.06998185  0.20202020  0.00000000       0.002
   0.07775761  0.18855219  0.00000000       0.002
   0.08553337  0.17508418  0.00000000       0.002
   0.10108490  0.17508418  0.00000000       0.002
   0.10886066  0.16161616  0.00000000       0.002
   0.11663642  0.14814815  0.00000000       0.002
   0.12441218  0.13468013  0.00000000       0.002
   0.13218794  0.12121212  0.00000000       0.002
   0.13996370  0.10774411  0.00000000       0.002
   0.14773946  0.09427609  0.00000000       0.002
   0.15551522  0.08080808  0.00000000       0.002
   0.16329099  0.06734007  0.00000000       0.002
   0.17106675  0.05387205  0.00000000       0.002
   0.17884251  0.04040404  0.00000000       0.002
   0.18661827  0.02693603  0.00000000       0.002
   0.19439403  0.01346801  0.00000000       0.002
   0.20216979  0.00000000  0.00000000       0.002
   0.20994555 -0.01346801  0.00000000       0.002
   0.21772131 -0.02693603  0.00000000       0.002
  -0.00777576  0.36363636  0.00000000       0.002
   0.00000000  0.35016835  0.00000000       0.002
   0.00777576  0.33670034  0.00000000       0.002
   0.01555152  0.32323232  0.00000000       0.002
   0.02332728  0.30976431  0.00000000       0.002
   0.03110304  0.29629630  0.00000000       0.002
   0.03887881  0.28282828  0.00000000       0.002
   0.04665457  0.26936027  0.00000000       0.002
   0.05443033  0.25589226  0.00000000       0.002
   0.06220609  0.24242424  0.00000000       0.002
   0.06998185  0.22895623  0.00000000       0.002
   0.07775761  0.21548822  0.00000000       0.002
   0.08553337  0.20202020  0.00000000       0.002
   0.09330913  0.18855219  0.00000000       0.002
   0.10886066  0.18855219  0.00000000       0.002
   0.11663642  0.17508418  0.00000000       0.002
   0.12441218  0.16161616  0.00000000       0.002
   0.13218794  0.14814815  0.00000000       0.002
   0.13996370  0.13468013  0.00000000       0.002
   0.14773946  0.12121212  0.00000000       0.002
   0.15551522  0.10774411  0.00000000       0.002
   0.16329099  0.09427609  0.00000000       0.002
   0.17106675  0.08080808  0.00000000       0.002
   0.17884251  0.06734007  0.00000000       0.002
   0.18661827  0.05387205  0.00000000       0.002
   0.19439403  0.04040404  0.00000000       0.002
   0.20216979  0.02693603  0.00000000       0.002
   0.20994555  0.01346801  0.00000000       0.002
   0.21772131  0.00000000  0.00000000       0.002
   0.22549708 -0.01346801  0.00000000       0.002
   0.00000000  0.37710438  0.00000000       0.002
   0.00777576  0.36363636  0.00000000       0.002
   0.01555152  0.35016835  0.00000000       0.002
   0.02332728  0.33670034  0.00000000       0.002
   0.03110304  0.32323232  0.00000000       0.002
   0.03887881  0.30976431  0.00000000       0.002
   0.04665457  0.29629630  0.00000000       0.002
   0.05443033  0.28282828  0.00000000       0.002
   0.06220609  0.26936027  0.00000000       0.002
   0.06998185  0.25589226  0.00000000       0.002
   0.07775761  0.24242424  0.00000000       0.002
   0.08553337  0.22895623  0.00000000       0.002
   0.09330913  0.21548822  0.00000000       0.002
   0.10108490  0.20202020  0.00000000       0.002
   0.11663642  0.20202020  0.00000000       0.001
   0.12441218  0.18855219  0.00000000       0.002
   0.13218794  0.17508418  0.00000000       0.002
   0.13996370  0.16161616  0.00000000       0.002
   0.14773946  0.14814815  0.00000000       0.002
   0.15551522  0.13468013  0.00000000       0.002
   0.16329099  0.12121212  0.00000000       0.002
   0.17106675  0.10774411  0.00000000       0.002
   0.17884251  0.09427609  0.00000000       0.002
   0.18661827  0.08080808  0.00000000       0.002
   0.19439403  0.06734007  0.00000000       0.002
   0.20216979  0.05387205  0.00000000       0.002
   0.20994555  0.04040404  0.00000000       0.002
   0.21772131  0.02693603  0.00000000       0.002
   0.22549708  0.01346801  0.00000000       0.002
   0.23327284  0.00000000  0.00000000       0.001

 k-points in reciprocal lattice and weights: Gamma-centered k-grid                   
   0.00000000  0.00000000  0.00000000       0.001
   0.03333333  0.00000000  0.00000000       0.002
   0.06666667  0.00000000  0.00000000       0.002
   0.10000000  0.00000000  0.00000000       0.002
   0.13333333  0.00000000  0.00000000       0.002
   0.16666667  0.00000000  0.00000000       0.002
   0.20000000  0.00000000  0.00000000       0.002
   0.23333333  0.00000000  0.00000000       0.002
   0.26666667  0.00000000  0.00000000       0.002
   0.30000000  0.00000000  0.00000000       0.002
   0.33333333  0.00000000  0.00000000       0.002
   0.36666667  0.00000000  0.00000000       0.002
   0.40000000  0.00000000  0.00000000       0.002
   0.43333333  0.00000000  0.00000000       0.002
   0.46666667  0.00000000  0.00000000       0.002
   0.50000000  0.00000000  0.00000000       0.001
   0.00000000  0.03333333  0.00000000       0.002
   0.03333333  0.03333333  0.00000000       0.002
   0.06666667  0.03333333  0.00000000       0.002
   0.10000000  0.03333333  0.00000000       0.002
   0.13333333  0.03333333  0.00000000       0.002
   0.16666667  0.03333333  0.00000000       0.002
   0.20000000  0.03333333  0.00000000       0.002
   0.23333333  0.03333333  0.00000000       0.002
   0.26666667  0.03333333  0.00000000       0.002
   0.30000000  0.03333333  0.00000000       0.002
   0.33333333  0.03333333  0.00000000       0.002
   0.36666667  0.03333333  0.00000000       0.002
   0.40000000  0.03333333  0.00000000       0.002
   0.43333333  0.03333333  0.00000000       0.002
   0.46666667  0.03333333  0.00000000       0.002
   0.50000000  0.03333333  0.00000000       0.002
  -0.46666667  0.03333333  0.00000000       0.002
  -0.43333333  0.03333333  0.00000000       0.002
  -0.40000000  0.03333333  0.00000000       0.002
  -0.36666667  0.03333333  0.00000000       0.002
  -0.33333333  0.03333333  0.00000000       0.002
  -0.30000000  0.03333333  0.00000000       0.002
  -0.26666667  0.03333333  0.00000000       0.002
  -0.23333333  0.03333333  0.00000000       0.002
  -0.20000000  0.03333333  0.00000000       0.002
  -0.16666667  0.03333333  0.00000000       0.002
  -0.13333333  0.03333333  0.00000000       0.002
  -0.10000000  0.03333333  0.00000000       0.002
  -0.06666667  0.03333333  0.00000000       0.002
  -0.03333333  0.03333333  0.00000000       0.002
   0.00000000  0.06666667  0.00000000       0.002
   0.03333333  0.06666667  0.00000000       0.002
   0.06666667  0.06666667  0.00000000       0.002
   0.10000000  0.06666667  0.00000000       0.002
   0.13333333  0.06666667  0.00000000       0.002
   0.16666667  0.06666667  0.00000000       0.002
   0.20000000  0.06666667  0.00000000       0.002
[...]
  band No.  band energies     occupation 
      1     -18.2726      2.00000
      2     -13.8720      2.00000
      3     -10.1572      2.00000
      4      -5.8858      2.00000
      5       0.1914     -0.00000
      6       5.9756      0.00000
      7       6.3553      0.00000
      8       6.8002      0.00000

 k-point   418 :       0.3667    0.4667    0.0000
  band No.  band energies     occupation 
      1     -18.1061      2.00000
      2     -14.3483      2.00000
      3      -9.7395      2.00000
      4      -5.7606      2.00000
      5      -0.1008     -0.00000
      6       5.5681      0.00000
      7       6.2626      0.00000
      8       7.0681      0.00000

 k-point   419 :       0.4000    0.4667    0.0000
  band No.  band energies     occupation 
      1     -17.8964      2.00000
      2     -14.8002      2.00000
      3      -9.4071      2.00000
      4      -5.6121      2.00000
      5      -0.4011     -0.00000
      6       4.9975      0.00000
      7       6.5678      0.00000
      8       7.4014      0.00000

 k-point   420 :       0.4333    0.4667    0.0000
  band No.  band energies     occupation 
      1     -17.6495      2.00000
      2     -15.2114      2.00000
      3      -9.1986      2.00000
      4      -5.4503      2.00000
      5      -0.6789     -0.00000
      6       4.6276      0.00000
      7       6.9470      0.00000
      8       7.7973      0.00000

 k-point   421 :       0.4667    0.4667    0.0000
  band No.  band energies     occupation 
      1     -17.3786      2.00000
      2     -15.5635      2.00000
      3      -9.1416      2.00000
      4      -5.2893      2.00000
      5      -0.9063     -0.00000
      6       4.4917      0.00000
      7       7.3934      0.00000
      8       8.2513      0.00000

 k-point   422 :       0.5000    0.4667    0.0000
  band No.  band energies     occupation 
      1     -17.1195      2.00000
      2     -15.8184      2.00000
      3      -9.2502      2.00000
      4      -5.1451      2.00000
      5      -1.0639     -0.00000
      6       4.6013      0.00000
      7       7.9021      0.00000
      8       8.7497      0.00000

 k-point   423 :      -0.4667    0.4667    0.0000
  band No.  band energies     occupation 
      1     -16.9617      2.00000
      2     -15.8862      2.00000
      3      -9.5114      2.00000
      4      -5.0314      2.00000
      5      -1.1357     -0.00000
      6       4.9460      0.00000
      7       8.3988      0.00000
      8       9.1388      0.00000

 k-point   424 :      -0.4333    0.4667    0.0000
  band No.  band energies     occupation 
      1     -16.9837      2.00000
      2     -15.6904      2.00000
      3      -9.8988      2.00000
      4      -4.9561      2.00000
      5      -1.1206     -0.00000
      6       5.4960      0.00000
      7       8.0955      0.00000
      8       8.8300      0.00000

 k-point   425 :      -0.4000    0.4667    0.0000
  band No.  band energies     occupation 
      1     -17.1031      2.00000
      2     -15.3174      2.00000
      3     -10.3775      2.00000
      4      -4.9190      2.00000
      5      -1.0326     -0.00000
      6       6.2126      0.00000
      7       7.7893      0.00000
      8       8.4637      0.00000

 k-point   426 :      -0.3667    0.4667    0.0000
  band No.  band energies     occupation 
      1     -17.2310      2.00000
      2     -14.8657      2.00000
      3     -10.9081      2.00000
      4      -4.9098      2.00000
      5      -0.9016     -0.00000
      6       7.0449      0.00000
      7       7.5588      0.00000
      8       8.1433      0.00000

 k-point   427 :      -0.3333    0.4667    0.0000
  band No.  band energies     occupation 
      1     -17.3331      2.00000
      2     -14.3912      2.00000
      3     -11.4448      2.00000
      4      -4.9152      2.00000
      5      -0.7652     -0.00000
      6       7.3546      0.00000
      7       7.8866      0.00000
      8       7.9990      0.00000

 k-point   428 :      -0.3000    0.4667    0.0000
  band No.  band energies     occupation 
      1     -17.3973      2.00000
      2     -13.9658      2.00000
      3     -11.9110      2.00000
      4      -4.9236      2.00000
      5      -0.6641     -0.00000
      6       7.2582      0.00000
      7       7.7163      0.00000
      8       8.9353      0.00000

 k-point   429 :      -0.2667    0.4667    0.0000
  band No.  band energies     occupation 
      1     -17.4191      2.00000
      2     -13.7661      2.00000
      3     -12.1250      2.00000
      4      -4.9272      2.00000
      5      -0.6255     -0.00000
      6       7.2246      0.00000
      7       7.6563      0.00000
      8       9.8856      0.00000

 k-point   430 :      -0.2333    0.4667    0.0000
  band No.  band energies     occupation 
      1     -17.3973      2.00000
      2     -13.9658      2.00000
      3     -11.9110      2.00000
      4      -4.9236      2.00000
      5      -0.6641     -0.00000
      6       7.2582      0.00000
      7       7.7163      0.00000
      8       8.9353      0.00000

 k-point   431 :      -0.2000    0.4667    0.0000
  band No.  band energies     occupation 
      1     -17.3331      2.00000
      2     -14.3912      2.00000
      3     -11.4448      2.00000
      4      -4.9152      2.00000
      5      -0.7652     -0.00000
      6       7.3546      0.00000
      7       7.8866      0.00000
      8       7.9990      0.00000

 k-point   432 :      -0.1667    0.4667    0.0000
  band No.  band energies     occupation 
      1     -17.2310      2.00000
      2     -14.8657      2.00000
      3     -10.9082      2.00000
      4      -4.9098      2.00000
      5      -0.9016     -0.00000
      6       7.0449      0.00000
      7       7.5588      0.00000
      8       8.1433      0.00000

 k-point   433 :      -0.1333    0.4667    0.0000
  band No.  band energies     occupation 
      1     -17.1031      2.00000
      2     -15.3174      2.00000
      3     -10.3775      2.00000
      4      -4.9190      2.00000
      5      -1.0326     -0.00000
      6       6.2126      0.00000
      7       7.7893      0.00000
      8       8.4637      0.00000

 k-point   434 :      -0.1000    0.4667    0.0000
  band No.  band energies     occupation 
      1     -16.9837      2.00000
      2     -15.6904      2.00000
      3      -9.8988      2.00000
      4      -4.9561      2.00000
      5      -1.1206     -0.00000
      6       5.4960      0.00000
      7       8.0955      0.00000
      8       8.8300      0.00000

 k-point   435 :      -0.0667    0.4667    0.0000
  band No.  band energies     occupation 
      1     -16.9617      2.00000
      2     -15.8862      2.00000
      3      -9.5115      2.00000
      4      -5.0314      2.00000
      5      -1.1357     -0.00000
      6       4.9460      0.00000
      7       8.3988      0.00000
      8       9.1388      0.00000

 k-point   436 :      -0.0333    0.4667    0.0000
  band No.  band energies     occupation 
      1     -17.1195      2.00000
      2     -15.8184      2.00000
      3      -9.2502      2.00000
      4      -5.1451      2.00000
      5      -1.0639     -0.00000
      6       4.6013      0.00000
      7       7.9023      0.00000
      8       8.7507      0.00000

 k-point   437 :       0.0000    0.5000    0.0000
  band No.  band energies     occupation 
      1     -17.0290      2.00000
      2     -15.9517      2.00000
      3      -9.1676      2.00000
      4      -5.1260      2.00000
      5      -1.1101     -0.00000
      6       4.4788      0.00000
      7       8.3073      0.00000
      8       9.1407      0.00000

 k-point   438 :       0.0333    0.5000    0.0000
  band No.  band energies     occupation 
      1     -17.1195      2.00000
      2     -15.8184      2.00000
      3      -9.2502      2.00000
      4      -5.1451      2.00000
      5      -1.0639     -0.00000
      6       4.6013      0.00000
      7       7.9026      0.00000
      8       8.7508      0.00000

 k-point   439 :       0.0667    0.5000    0.0000
  band No.  band energies     occupation 
      1     -17.3096      2.00000
      2     -15.5005      2.00000
      3      -9.4853      2.00000
      4      -5.1965      2.00000
      5      -0.9319     -0.00000
      6       4.9587      0.00000
      7       7.4927      0.00000
      8       8.3218      0.00000

 k-point   440 :       0.1000    0.5000    0.0000
  band No.  band energies     occupation 
      1     -17.5094      2.00000
      2     -15.0910      2.00000
      3      -9.8456      2.00000
      4      -5.2684      2.00000
      5      -0.7357     -0.00000
      6       5.5218      0.00000
      7       7.1491      0.00000
      8       7.9473      0.00000

 k-point   441 :       0.1333    0.5000    0.0000
  band No.  band energies     occupation 
      1     -17.6839      2.00000
      2     -14.6320      2.00000
      3     -10.2948      2.00000
      4      -5.3456      2.00000
      5      -0.5083     -0.00000
      6       6.2458      0.00000
      7       6.8801      0.00000
      8       7.6325      0.00000

 k-point   442 :       0.1667    0.5000    0.0000
  band No.  band energies     occupation 
      1     -17.8202      2.00000
      2     -14.1504      2.00000
      3     -10.7901      2.00000
      4      -5.4150      2.00000
      5      -0.2863     -0.00000
      6       6.6380      0.00000
      7       7.1360      0.00000
      8       7.3821      0.00000

 k-point   443 :       0.2000    0.5000    0.0000
  band No.  band energies     occupation 
      1     -17.9131      2.00000
      2     -13.6869      2.00000
      3     -11.2729      2.00000
      4      -5.4667      2.00000
      5      -0.1072     -0.00000
      6       6.5107      0.00000
      7       7.2044      0.00000
      8       8.0572      0.00000

 k-point   444 :       0.2333    0.5000    0.0000
  band No.  band energies     occupation 
      1     -17.9601      2.00000
      2     -13.3467      2.00000
      3     -11.6257      2.00000
      4      -5.4940      2.00000
      5      -0.0076     -0.00000
      6       6.4427      0.00000
      7       7.1110      0.00000
      8       9.0122      0.00000

 k-point   445 :       0.2667    0.5000    0.0000
  band No.  band energies     occupation 
      1     -17.9601      2.00000
      2     -13.3467      2.00000
      3     -11.6257      2.00000
      4      -5.4940      2.00000
      5      -0.0076     -0.00000
      6       6.4427      0.00000
      7       7.1110      0.00000
      8       9.9742      0.00000

 k-point   446 :       0.3000    0.5000    0.0000
  band No.  band energies     occupation 
      1     -17.9131      2.00000
      2     -13.6869      2.00000
      3     -11.2729      2.00000
      4      -5.4667      2.00000
      5      -0.1072     -0.00000
      6       6.5108      0.00000
      7       7.2044      0.00000
      8       8.0573      0.00000

 k-point   447 :       0.3333    0.5000    0.0000
  band No.  band energies     occupation 
      1     -17.8202      2.00000
      2     -14.1504      2.00000
      3     -10.7901      2.00000
      4      -5.4150      2.00000
      5      -0.2863     -0.00000
      6       6.6380      0.00000
      7       7.1360      0.00000
      8       7.3821      0.00000

 k-point   448 :       0.3667    0.5000    0.0000
  band No.  band energies     occupation 
      1     -17.6839      2.00000
      2     -14.6320      2.00000
      3     -10.2948      2.00000
      4      -5.3456      2.00000
      5      -0.5083     -0.00000
      6       6.2458      0.00000
      7       6.8801      0.00000
      8       7.6325      0.00000

 k-point   449 :       0.4000    0.5000    0.0000
  band No.  band energies     occupation 
      1     -17.5094      2.00000
      2     -15.0910      2.00000
      3      -9.8456      2.00000
      4      -5.2684      2.00000
      5      -0.7357     -0.00000
      6       5.5218      0.00000
      7       7.1491      0.00000
      8       7.9472      0.00000

 k-point   450 :       0.4333    0.5000    0.0000
  band No.  band energies     occupation 
      1     -17.3096      2.00000
      2     -15.5005      2.00000
      3      -9.4853      2.00000
      4      -5.1965      2.00000
      5      -0.9319     -0.00000
      6       4.9587      0.00000
      7       7.4927      0.00000
      8       8.3216      0.00000

 k-point   451 :       0.4667    0.5000    0.0000
  band No.  band energies     occupation 
      1     -17.1195      2.00000
      2     -15.8184      2.00000
      3      -9.2502      2.00000
      4      -5.1451      2.00000
      5      -1.0639     -0.00000
      6       4.6013      0.00000
      7       7.9021      0.00000
      8       8.7497      0.00000

 k-point   452 :       0.5000    0.5000    0.0000
  band No.  band energies     occupation 
      1     -17.0290      2.00000
      2     -15.9518      2.00000
      3      -9.1676      2.00000
      4      -5.1260      2.00000
      5      -1.1101     -0.00000
      6       4.4788      0.00000
      7       8.3703      0.00000
      8       9.1839      0.00000


--------------------------------------------------------------------------------------------------------


 soft charge-density along one line, spin component           1
         0         1         2         3         4         5         6         7         8         9
 total charge-density along one line

 pseudopotential strength for first ion, spin component:           1
 10.220  13.592  -0.000  -0.000   0.000   0.000   0.000  -0.000
 13.592  18.074  -0.000  -0.000   0.000   0.000   0.000  -0.000
 -0.000  -0.000  -4.353  -0.000  -0.000   8.515   0.000   0.000
 -0.000  -0.000  -0.000  -4.346  -0.000   0.000   8.506   0.000
  0.000   0.000  -0.000  -0.000  -4.353   0.000   0.000   8.515
  0.000   0.000   8.515   0.000   0.000 -18.795  -0.000  -0.000
  0.000   0.000   0.000   8.506   0.000  -0.000 -18.787  -0.000
 -0.000  -0.000   0.000   0.000   8.515  -0.000  -0.000 -18.795
 total augmentation occupancy for first ion, spin component:           1
  2.000   0.000   0.000   0.000   0.000   0.000   0.000   0.000
  0.000   0.000   0.000   0.000   0.000   0.000   0.000   0.000
  0.000   0.000   0.667   0.000   0.000   0.000   0.000   0.000
  0.000   0.000   0.000   0.667   0.000   0.000   0.000   0.000
  0.000   0.000   0.000   0.000   0.667   0.000   0.000   0.000
  0.000   0.000   0.000   0.000   0.000   0.000   0.000   0.000
  0.000   0.000   0.000   0.000   0.000   0.000   0.000   0.000
  0.000   0.000   0.000   0.000   0.000   0.000   0.000   0.000


------------------------ aborting loop because EDIFF is reached ----------------------------------------


    CHARGE:  cpu time    1.1114: real time    0.8156
    FORLOC:  cpu time    0.0039: real time    0.0039
    FORNL :  cpu time    0.9584: real time    0.9584
    STRESS:  cpu time    4.5229: real time    3.0577
    FORCOR:  cpu time    0.1053: real time    0.1053
    FORHAR:  cpu time    0.0286: real time    0.0286
    OFIELD:  cpu time    0.0003: real time    0.0003

  FORCE on cell =-STRESS in cart. coord.  units (eV):
  Direction    XX          YY          ZZ          XY          YZ          ZX
  --------------------------------------------------------------------------------------
  Alpha Z     3.09699     3.09699     3.09699
  Ewald    1551.31826  1551.31826 -1819.21330     0.00000     0.00000     0.00000
  Hartree  1518.88551  1518.88546 -1507.49731     0.00000    -0.00000    -0.00000
  E(xc)     -29.64241   -29.64241   -30.75475     0.00000     0.00000    -0.00000
  Local   -3156.03739 -3156.03730  3224.13009     0.00001     0.00000    -0.00000
  n-local    -6.99559    -6.99561    -6.41530     0.00001    -0.00000    -0.00000
  augment    -0.76126    -0.76121    -0.70509    -0.00000    -0.00000     0.00000
  Kinetic   119.52421   119.52432   137.07605    -0.00003     0.00000     0.00000
  Fock        0.00000     0.00000     0.00000     0.00000     0.00000     0.00000
  -------------------------------------------------------------------------------------
  Total      -0.61168    -0.61150    -0.28263    -0.00001     0.00000     0.00000
  in kB      -9.23682    -9.23414    -4.26793    -0.00015     0.00000     0.00000
  external pressure =       -7.58 kB  Pullay stress =        0.00 kB


 VOLUME and BASIS-vectors are now :
 -----------------------------------------------------------------------------
  energy-cutoff  :      400.00
  volume of cell :      106.10
      direct lattice vectors                 reciprocal lattice vectors
     2.143412872 -1.237500000  0.000000000     0.233272836 -0.404040404  0.000000000
     2.143412872  1.237500000  0.000000000     0.233272836  0.404040404 -0.000000000
     0.000000000  0.000000000 20.000000000    -0.000000000  0.000000000  0.050000000

  length of vectors
     2.474999998  2.474999998 20.000000000     0.466545672  0.466545672  0.050000000


 FORCES acting on ions
    electron-ion (+dipol)            ewald-force                    non-local-force                 convergence-correction
 -----------------------------------------------------------------------------------------------
   0.128E-03 -.158E-04 -.364E-04   -.211E-06 -.182E-14 0.000E+00   -.222E-04 0.206E-04 -.423E-05   -.727E-04 0.333E-05 0.394E-04
   -.194E-03 0.164E-04 -.362E-04   0.211E-06 0.623E-14 0.000E+00   0.267E-04 -.210E-04 -.478E-05   0.119E-03 -.345E-05 0.393E-04
 -----------------------------------------------------------------------------------------------
   -.657E-04 0.594E-06 -.726E-04   0.111E-13 0.442E-14 0.000E+00   0.447E-05 -.330E-06 -.901E-05   0.465E-04 -.124E-06 0.788E-04


 POSITION                                       TOTAL-FORCE (eV/Angst)
 -----------------------------------------------------------------------------------
      0.00000      0.00000      0.00000         0.000041      0.000008      0.000000
      1.42894      0.00000      0.00000        -0.000041     -0.000008     -0.000000
 -----------------------------------------------------------------------------------
    total drift:                               -0.000015      0.000000     -0.000003


--------------------------------------------------------------------------------------------------------



  FREE ENERGIE OF THE ION-ELECTRON SYSTEM (eV)
  ---------------------------------------------------
  free  energy   TOTEN  =       -18.46332089 eV

  energy  without entropy=      -18.46308776  energy(sigma->0) =      -18.46324318



--------------------------------------------------------------------------------------------------------


    POTLOK:  cpu time    0.1064: real time    0.1064


--------------------------------------------------------------------------------------------------------


 writing wavefunctions
     LOOP+:  cpu time 1681.5972: real time  220.3165
 vacuum level on the upper side and lower side of the slab         1.497         1.497
    4ORBIT:  cpu time    0.0000: real time    0.0000

 total amount of memory used by VASP on root node   225567. kBytes
========================================================================

   base      :      30000. kBytes
   nonl-proj :      56558. kBytes
   fftplans  :       9820. kBytes
   grid      :      15265. kBytes
   one-center:          6. kBytes
   wavefun   :     113918. kBytes

  
  
 General timing and accounting informations for this job:
 ========================================================
  
                  Total CPU time used (sec):     1684.671
                            User time (sec):      905.011
                          System time (sec):      779.660
                         Elapsed time (sec):      222.188
  
                   Maximum memory used (kb):      279928.
                   Average memory used (kb):           0.
  
                          Minor page faults:        82271
                          Major page faults:            0
                 Voluntary context switches:        13387
