<?xml version="1.0" encoding="ISO-8859-1"?>
<modeling>
 <generator>
  <i name="program" type="string">vasp </i>
  <i name="version" type="string">5.4.1  </i>
  <i name="subversion" type="string">05Feb16 (build Nov 12 2018 11:59:28) complex                          parallel </i>
  <i name="platform" type="string">IFC91_ompi </i>
  <i name="date" type="string">2021 07 23 </i>
  <i name="time" type="string">11:21:37 </i>
 </generator>
 <incar>
  <i type="string" name="PREC">accurate</i>
  <i type="string" name="ALGO"> Fast</i>
  <i type="int" name="ICHARG">    11</i>
  <i name="EDIFF">      0.00000010</i>
  <i type="int" name="ISYM">     0</i>
  <i type="logical" name="LREAL"> F  </i>
  <i type="logical" name="LVHAR"> T  </i>
  <v type="int" name="KPOINT_BSE">    -1     0     0     0</v>
  <i type="logical" name="LDIPOL"> T  </i>
  <i type="int" name="IDIPOL">     3</i>
 </incar>
 <kpoints>
  <generation param="Gamma">
   <v type="int" name="divisions">      30       30        1 </v>
   <v name="usershift">      0.00000000       0.00000000       0.00000000 </v>
   <v name="genvec1">      0.03333333      -0.00000000       0.00000000 </v>
   <v name="genvec2">     -0.00000000       0.03333333       0.00000000 </v>
   <v name="genvec3">      0.00000000       0.00000000       1.00000000 </v>
   <v name="shift">      0.00000000       0.00000000       0.00000000 </v>
  </generation>
  <varray name="kpointlist" >
   <v>       0.00000000       0.00000000       0.00000000 </v>
   <v>       0.03333333       0.00000000       0.00000000 </v>
   <v>       0.06666667       0.00000000       0.00000000 </v>
   <v>       0.10000000       0.00000000       0.00000000 </v>
   <v>       0.13333333       0.00000000       0.00000000 </v>
   <v>       0.16666667       0.00000000       0.00000000 </v>
   <v>       0.20000000       0.00000000       0.00000000 </v>
   <v>       0.23333333       0.00000000       0.00000000 </v>
   <v>       0.26666667       0.00000000       0.00000000 </v>
   <v>       0.30000000       0.00000000       0.00000000 </v>
   <v>       0.33333333       0.00000000       0.00000000 </v>
   <v>       0.36666667       0.00000000       0.00000000 </v>
   <v>       0.40000000       0.00000000       0.00000000 </v>
   <v>       0.43333333       0.00000000       0.00000000 </v>
   <v>       0.46666667       0.00000000       0.00000000 </v>
   <v>       0.50000000       0.00000000       0.00000000 </v>
   <v>       0.00000000       0.03333333       0.00000000 </v>
   <v>       0.03333333       0.03333333       0.00000000 </v>
   <v>       0.06666667       0.03333333       0.00000000 </v>
   <v>       0.10000000       0.03333333       0.00000000 </v>
   <v>       0.13333333       0.03333333       0.00000000 </v>
   <v>       0.16666667       0.03333333       0.00000000 </v>
   <v>       0.20000000       0.03333333       0.00000000 </v>
   <v>       0.23333333       0.03333333       0.00000000 </v>
   <v>       0.26666667       0.03333333       0.00000000 </v>
   <v>       0.30000000       0.03333333       0.00000000 </v>
   <v>       0.33333333       0.03333333       0.00000000 </v>
   <v>       0.36666667       0.03333333       0.00000000 </v>
   <v>       0.40000000       0.03333333       0.00000000 </v>
   <v>       0.43333333       0.03333333       0.00000000 </v>
   <v>       0.46666667       0.03333333       0.00000000 </v>
   <v>       0.50000000       0.03333333       0.00000000 </v>
   <v>      -0.46666667       0.03333333       0.00000000 </v>
   <v>      -0.43333333       0.03333333       0.00000000 </v>
   <v>      -0.40000000       0.03333333       0.00000000 </v>
   <v>      -0.36666667       0.03333333       0.00000000 </v>
   <v>      -0.33333333       0.03333333       0.00000000 </v>
   <v>      -0.30000000       0.03333333       0.00000000 </v>
   <v>      -0.26666667       0.03333333       0.00000000 </v>
   <v>      -0.23333333       0.03333333       0.00000000 </v>
   <v>      -0.20000000       0.03333333       0.00000000 </v>
   <v>      -0.16666667       0.03333333       0.00000000 </v>
   <v>      -0.13333333       0.03333333       0.00000000 </v>
   <v>      -0.10000000       0.03333333       0.00000000 </v>
   <v>      -0.06666667       0.03333333       0.00000000 </v>
   <v>      -0.03333333       0.03333333       0.00000000 </v>
   <v>       0.00000000       0.06666667       0.00000000 </v>
   <v>       0.03333333       0.06666667       0.00000000 </v>
   <v>       0.06666667       0.06666667       0.00000000 </v>
   <v>       0.10000000       0.06666667       0.00000000 </v>
   <v>       0.13333333       0.06666667       0.00000000 </v>
   <v>       0.16666667       0.06666667       0.00000000 </v>
   <v>       0.20000000       0.06666667       0.00000000 </v>
   <v>       0.23333333       0.06666667       0.00000000 </v>
   <v>       0.26666667       0.06666667       0.00000000 </v>
   <v>       0.30000000       0.06666667       0.00000000 </v>
   <v>       0.33333333       0.06666667       0.00000000 </v>
   <v>       0.36666667       0.06666667       0.00000000 </v>
   <v>       0.40000000       0.06666667       0.00000000 </v>
   <v>       0.43333333       0.06666667       0.00000000 </v>
   <v>       0.46666667       0.06666667       0.00000000 </v>
   <v>       0.50000000       0.06666667       0.00000000 </v>
   <v>      -0.46666667       0.06666667       0.00000000 </v>
   <v>      -0.43333333       0.06666667       0.00000000 </v>
   <v>      -0.40000000       0.06666667       0.00000000 </v>
   <v>      -0.36666667       0.06666667       0.00000000 </v>
   <v>      -0.33333333       0.06666667       0.00000000 </v>
   <v>      -0.30000000       0.06666667       0.00000000 </v>
   <v>      -0.26666667       0.06666667       0.00000000 </v>
   <v>      -0.23333333       0.06666667       0.00000000 </v>
   <v>      -0.20000000       0.06666667       0.00000000 </v>
   <v>      -0.16666667       0.06666667       0.00000000 </v>
   <v>      -0.13333333       0.06666667       0.00000000 </v>
   <v>      -0.10000000       0.06666667       0.00000000 </v>
   <v>      -0.06666667       0.06666667       0.00000000 </v>
   <v>      -0.03333333       0.06666667       0.00000000 </v>
   <v>       0.00000000       0.10000000       0.00000000 </v>
   <v>       0.03333333       0.10000000       0.00000000 </v>
   <v>       0.06666667       0.10000000       0.00000000 </v>
   <v>       0.10000000       0.10000000       0.00000000 </v>
   <v>       0.13333333       0.10000000       0.00000000 </v>
   <v>       0.16666667       0.10000000       0.00000000 </v>
   <v>       0.20000000       0.10000000       0.00000000 </v>
   <v>       0.23333333       0.10000000       0.00000000 </v>
   <v>       0.26666667       0.10000000       0.00000000 </v>
   <v>       0.30000000       0.10000000       0.00000000 </v>
   <v>       0.33333333       0.10000000       0.00000000 </v>
   <v>       0.36666667       0.10000000       0.00000000 </v>
   <v>       0.40000000       0.10000000       0.00000000 </v>
   <v>       0.43333333       0.10000000       0.00000000 </v>
   <v>       0.46666667       0.10000000       0.00000000 </v>
   <v>       0.50000000       0.10000000       0.00000000 </v>
   <v>      -0.46666667       0.10000000       0.00000000 </v>
   <v>      -0.43333333       0.10000000       0.00000000 </v>
   <v>      -0.40000000       0.10000000       0.00000000 </v>
   <v>      -0.36666667       0.10000000       0.00000000 </v>
   <v>      -0.33333333       0.10000000       0.00000000 </v>
   <v>      -0.30000000       0.10000000       0.00000000 </v>
   <v>      -0.26666667       0.10000000       0.00000000 </v>
   <v>      -0.23333333       0.10000000       0.00000000 </v>
   <v>      -0.20000000       0.10000000       0.00000000 </v>
   <v>      -0.16666667       0.10000000       0.00000000 </v>
   <v>      -0.13333333       0.10000000       0.00000000 </v>
   <v>      -0.10000000       0.10000000       0.00000000 </v>
   <v>      -0.06666667       0.10000000       0.00000000 </v>
   <v>      -0.03333333       0.10000000       0.00000000 </v>
   <v>       0.00000000       0.13333333       0.00000000 </v>
   <v>       0.03333333       0.13333333       0.00000000 </v>
   <v>       0.06666667       0.13333333       0.00000000 </v>
   <v>       0.10000000       0.13333333       0.00000000 </v>
   <v>       0.13333333       0.13333333       0.00000000 </v>
   <v>       0.16666667       0.13333333       0.00000000 </v>
   <v>       0.20000000       0.13333333       0.00000000 </v>
   <v>       0.23333333       0.13333333       0.00000000 </v>
   <v>       0.26666667       0.13333333       0.00000000 </v>
   <v>       0.30000000       0.13333333       0.00000000 </v>
   <v>       0.33333333       0.13333333       0.00000000 </v>
   <v>       0.36666667       0.13333333       0.00000000 </v>
   <v>       0.40000000       0.13333333       0.00000000 </v>
   <v>       0.43333333       0.13333333       0.00000000 </v>
   <v>       0.46666667       0.13333333       0.00000000 </v>
   <v>       0.50000000       0.13333333       0.00000000 </v>
   <v>      -0.46666667       0.13333333       0.00000000 </v>
   <v>      -0.43333333       0.13333333       0.00000000 </v>
   <v>      -0.40000000       0.13333333       0.00000000 </v>
   <v>      -0.36666667       0.13333333       0.00000000 </v>
   <v>      -0.33333333       0.13333333       0.00000000 </v>
   <v>      -0.30000000       0.13333333       0.00000000 </v>
   <v>      -0.26666667       0.13333333       0.00000000 </v>
   <v>      -0.23333333       0.13333333       0.00000000 </v>
   <v>      -0.20000000       0.13333333       0.00000000 </v>
   <v>      -0.16666667       0.13333333       0.00000000 </v>
   <v>      -0.13333333       0.13333333       0.00000000 </v>
   <v>      -0.10000000       0.13333333       0.00000000 </v>
   <v>      -0.06666667       0.13333333       0.00000000 </v>
   <v>      -0.03333333       0.13333333       0.00000000 </v>
   <v>       0.00000000       0.16666667       0.00000000 </v>
   <v>       0.03333333       0.16666667       0.00000000 </v>
   <v>       0.06666667       0.16666667       0.00000000 </v>
   <v>       0.10000000       0.16666667       0.00000000 </v>
   <v>       0.13333333       0.16666667       0.00000000 </v>
   <v>       0.16666667       0.16666667       0.00000000 </v>
   <v>       0.20000000       0.16666667       0.00000000 </v>
   <v>       0.23333333       0.16666667       0.00000000 </v>
   <v>       0.26666667       0.16666667       0.00000000 </v>
   <v>       0.30000000       0.16666667       0.00000000 </v>
   <v>       0.33333333       0.16666667       0.00000000 </v>
   <v>       0.36666667       0.16666667       0.00000000 </v>
   <v>       0.40000000       0.16666667       0.00000000 </v>
   <v>       0.43333333       0.16666667       0.00000000 </v>
   <v>       0.46666667       0.16666667       0.00000000 </v>
   <v>       0.50000000       0.16666667       0.00000000 </v>
   <v>      -0.46666667       0.16666667       0.00000000 </v>
   <v>      -0.43333333       0.16666667       0.00000000 </v>
   <v>      -0.40000000       0.16666667       0.00000000 </v>
   <v>      -0.36666667       0.16666667       0.00000000 </v>
   <v>      -0.33333333       0.16666667       0.00000000 </v>
   <v>      -0.30000000       0.16666667       0.00000000 </v>
   <v>      -0.26666667       0.16666667       0.00000000 </v>
   <v>      -0.23333333       0.16666667       0.00000000 </v>
   <v>      -0.20000000       0.16666667       0.00000000 </v>
   <v>      -0.16666667       0.16666667       0.00000000 </v>
   <v>      -0.13333333       0.16666667       0.00000000 </v>
   <v>      -0.10000000       0.16666667       0.00000000 </v>
   <v>      -0.06666667       0.16666667       0.00000000 </v>
   <v>      -0.03333333       0.16666667       0.00000000 </v>
   <v>       0.00000000       0.20000000       0.00000000 </v>
   <v>       0.03333333       0.20000000       0.00000000 </v>
   <v>       0.06666667       0.20000000       0.00000000 </v>
   <v>       0.10000000       0.20000000       0.00000000 </v>
   <v>       0.13333333       0.20000000       0.00000000 </v>
   <v>       0.16666667       0.20000000       0.00000000 </v>
   <v>       0.20000000       0.20000000       0.00000000 </v>
   <v>       0.23333333       0.20000000       0.00000000 </v>
   <v>       0.26666667       0.20000000       0.00000000 </v>
   <v>       0.30000000       0.20000000       0.00000000 </v>
   <v>       0.33333333       0.20000000       0.00000000 </v>
   <v>       0.36666667       0.20000000       0.00000000 </v>
   <v>       0.40000000       0.20000000       0.00000000 </v>
   <v>       0.43333333       0.20000000       0.00000000 </v>
   <v>       0.46666667       0.20000000       0.00000000 </v>
   <v>       0.50000000       0.20000000       0.00000000 </v>
   <v>      -0.46666667       0.20000000       0.00000000 </v>
   <v>      -0.43333333       0.20000000       0.00000000 </v>
   <v>      -0.40000000       0.20000000       0.00000000 </v>
   <v>      -0.36666667       0.20000000       0.00000000 </v>
   <v>      -0.33333333       0.20000000       0.00000000 </v>
   <v>      -0.30000000       0.20000000       0.00000000 </v>
   <v>      -0.26666667       0.20000000       0.00000000 </v>
   <v>      -0.23333333       0.20000000       0.00000000 </v>
   <v>      -0.20000000       0.20000000       0.00000000 </v>
   <v>      -0.16666667       0.20000000       0.00000000 </v>
   <v>      -0.13333333       0.20000000       0.00000000 </v>
   <v>      -0.10000000       0.20000000       0.00000000 </v>
   <v>      -0.06666667       0.20000000       0.00000000 </v>
   <v>      -0.03333333       0.20000000       0.00000000 </v>
   <v>       0.00000000       0.23333333       0.00000000 </v>
   <v>       0.03333333       0.23333333       0.00000000 </v>
   <v>       0.06666667       0.23333333       0.00000000 </v>
   <v>       0.10000000       0.23333333       0.00000000 </v>
   <v>       0.13333333       0.23333333       0.00000000 </v>
   <v>       0.16666667       0.23333333       0.00000000 </v>
   <v>       0.20000000       0.23333333       0.00000000 </v>
   <v>       0.23333333       0.23333333       0.00000000 </v>
   <v>       0.26666667       0.23333333       0.00000000 </v>
   <v>       0.30000000       0.23333333       0.00000000 </v>
   <v>       0.33333333       0.23333333       0.00000000 </v>
   <v>       0.36666667       0.23333333       0.00000000 </v>
   <v>       0.40000000       0.23333333       0.00000000 </v>
   <v>       0.43333333       0.23333333       0.00000000 </v>
   <v>       0.46666667       0.23333333       0.00000000 </v>
   <v>       0.50000000       0.23333333       0.00000000 </v>
   <v>      -0.46666667       0.23333333       0.00000000 </v>
   <v>      -0.43333333       0.23333333       0.00000000 </v>
   <v>      -0.40000000       0.23333333       0.00000000 </v>
   <v>      -0.36666667       0.23333333       0.00000000 </v>
   <v>      -0.33333333       0.23333333       0.00000000 </v>
   <v>      -0.30000000       0.23333333       0.00000000 </v>
   <v>      -0.26666667       0.23333333       0.00000000 </v>
   <v>      -0.23333333       0.23333333       0.00000000 </v>
   <v>      -0.20000000       0.23333333       0.00000000 </v>
   <v>      -0.16666667       0.23333333       0.00000000 </v>
   <v>      -0.13333333       0.23333333       0.00000000 </v>
   <v>      -0.10000000       0.23333333       0.00000000 </v>
   <v>      -0.06666667       0.23333333       0.00000000 </v>
   <v>      -0.03333333       0.23333333       0.00000000 </v>
   <v>       0.00000000       0.26666667       0.00000000 </v>
   <v>       0.03333333       0.26666667       0.00000000 </v>
   <v>       0.06666667       0.26666667       0.00000000 </v>
   <v>       0.10000000       0.26666667       0.00000000 </v>
   <v>       0.13333333       0.26666667       0.00000000 </v>
   <v>       0.16666667       0.26666667       0.00000000 </v>
   <v>       0.20000000       0.26666667       0.00000000 </v>
   <v>       0.23333333       0.26666667       0.00000000 </v>
   <v>       0.26666667       0.26666667       0.00000000 </v>
   <v>       0.30000000       0.26666667       0.00000000 </v>
   <v>       0.33333333       0.26666667       0.00000000 </v>
   <v>       0.36666667       0.26666667       0.00000000 </v>
   <v>       0.40000000       0.26666667       0.00000000 </v>
   <v>       0.43333333       0.26666667       0.00000000 </v>
   <v>       0.46666667       0.26666667       0.00000000 </v>
   <v>       0.50000000       0.26666667       0.00000000 </v>
   <v>      -0.46666667       0.26666667       0.00000000 </v>
   <v>      -0.43333333       0.26666667       0.00000000 </v>
   <v>      -0.40000000       0.26666667       0.00000000 </v>
   <v>      -0.36666667       0.26666667       0.00000000 </v>
   <v>      -0.33333333       0.26666667       0.00000000 </v>
   <v>      -0.30000000       0.26666667       0.00000000 </v>
   <v>      -0.26666667       0.26666667       0.00000000 </v>
   <v>      -0.23333333       0.26666667       0.00000000 </v>
   <v>      -0.20000000       0.26666667       0.00000000 </v>
   <v>      -0.16666667       0.26666667       0.00000000 </v>
   <v>      -0.13333333       0.26666667       0.00000000 </v>
   <v>      -0.10000000       0.26666667       0.00000000 </v>
   <v>      -0.06666667       0.26666667       0.00000000 </v>
   <v>      -0.03333333       0.26666667       0.00000000 </v>
   <v>       0.00000000       0.30000000       0.00000000 </v>
   <v>       0.03333333       0.30000000       0.00000000 </v>
   <v>       0.06666667       0.30000000       0.00000000 </v>
   <v>       0.10000000       0.30000000       0.00000000 </v>
   <v>       0.13333333       0.30000000       0.00000000 </v>
   <v>       0.16666667       0.30000000       0.00000000 </v>
   <v>       0.20000000       0.30000000       0.00000000 </v>
   <v>       0.23333333       0.30000000       0.00000000 </v>
   <v>       0.26666667       0.30000000       0.00000000 </v>
   <v>       0.30000000       0.30000000       0.00000000 </v>
   <v>       0.33333333       0.30000000       0.00000000 </v>
   <v>       0.36666667       0.30000000       0.00000000 </v>
   <v>       0.40000000       0.30000000       0.00000000 </v>
   <v>       0.43333333       0.30000000       0.00000000 </v>
   <v>       0.46666667       0.30000000       0.00000000 </v>
   <v>       0.50000000       0.30000000       0.00000000 </v>
   <v>      -0.46666667       0.30000000       0.00000000 </v>
   <v>      -0.43333333       0.30000000       0.00000000 </v>
   <v>      -0.40000000       0.30000000       0.00000000 </v>
   <v>      -0.36666667       0.30000000       0.00000000 </v>
   <v>      -0.33333333       0.30000000       0.00000000 </v>
   <v>      -0.30000000       0.30000000       0.00000000 </v>
   <v>      -0.26666667       0.30000000       0.00000000 </v>
   <v>      -0.23333333       0.30000000       0.00000000 </v>
   <v>      -0.20000000       0.30000000       0.00000000 </v>
   <v>      -0.16666667       0.30000000       0.00000000 </v>
   <v>      -0.13333333       0.30000000       0.00000000 </v>
   <v>      -0.10000000       0.30000000       0.00000000 </v>
   <v>      -0.06666667       0.30000000       0.00000000 </v>
   <v>      -0.03333333       0.30000000       0.00000000 </v>
   <v>       0.00000000       0.33333333       0.00000000 </v>
   <v>       0.03333333       0.33333333       0.00000000 </v>
   <v>       0.06666667       0.33333333       0.00000000 </v>
   <v>       0.10000000       0.33333333       0.00000000 </v>
   <v>       0.13333333       0.33333333       0.00000000 </v>
   <v>       0.16666667       0.33333333       0.00000000 </v>
   <v>       0.20000000       0.33333333       0.00000000 </v>
   <v>       0.23333333       0.33333333       0.00000000 </v>
   <v>       0.26666667       0.33333333       0.00000000 </v>
   <v>       0.30000000       0.33333333       0.00000000 </v>
   <v>       0.33333333       0.33333333       0.00000000 </v>
   <v>       0.36666667       0.33333333       0.00000000 </v>
   <v>       0.40000000       0.33333333       0.00000000 </v>
   <v>       0.43333333       0.33333333       0.00000000 </v>
   <v>       0.46666667       0.33333333       0.00000000 </v>
   <v>       0.50000000       0.33333333       0.00000000 </v>
   <v>      -0.46666667       0.33333333       0.00000000 </v>
   <v>      -0.43333333       0.33333333       0.00000000 </v>
   <v>      -0.40000000       0.33333333       0.00000000 </v>
   <v>      -0.36666667       0.33333333       0.00000000 </v>
   <v>      -0.33333333       0.33333333       0.00000000 </v>
   <v>      -0.30000000       0.33333333       0.00000000 </v>
   <v>      -0.26666667       0.33333333       0.00000000 </v>
   <v>      -0.23333333       0.33333333       0.00000000 </v>
   <v>      -0.20000000       0.33333333       0.00000000 </v>
   <v>      -0.16666667       0.33333333       0.00000000 </v>
   <v>      -0.13333333       0.33333333       0.00000000 </v>
   <v>      -0.10000000       0.33333333       0.00000000 </v>
   <v>      -0.06666667       0.33333333       0.00000000 </v>
   <v>      -0.03333333       0.33333333       0.00000000 </v>
   <v>       0.00000000       0.36666667       0.00000000 </v>
   <v>       0.03333333       0.36666667       0.00000000 </v>
   <v>       0.06666667       0.36666667       0.00000000 </v>
   <v>       0.10000000       0.36666667       0.00000000 </v>
   <v>       0.13333333       0.36666667       0.00000000 </v>
   <v>       0.16666667       0.36666667       0.00000000 </v>
   <v>       0.20000000       0.36666667       0.00000000 </v>
   <v>       0.23333333       0.36666667       0.00000000 </v>
   <v>       0.26666667       0.36666667       0.00000000 </v>
   <v>       0.30000000       0.36666667       0.00000000 </v>
   <v>       0.33333333       0.36666667       0.00000000 </v>
   <v>       0.36666667       0.36666667       0.00000000 </v>
   <v>       0.40000000       0.36666667       0.00000000 </v>
   <v>       0.43333333       0.36666667       0.00000000 </v>
   <v>       0.46666667       0.36666667       0.00000000 </v>
   <v>       0.50000000       0.36666667       0.00000000 </v>
   <v>      -0.46666667       0.36666667       0.00000000 </v>
   <v>      -0.43333333       0.36666667       0.00000000 </v>
   <v>      -0.40000000       0.36666667       0.00000000 </v>
   <v>      -0.36666667       0.36666667       0.00000000 </v>
   <v>      -0.33333333       0.36666667       0.00000000 </v>
   <v>      -0.30000000       0.36666667       0.00000000 </v>
   <v>      -0.26666667       0.36666667       0.00000000 </v>
   <v>      -0.23333333       0.36666667       0.00000000 </v>
   <v>      -0.20000000       0.36666667       0.00000000 </v>
   <v>      -0.16666667       0.36666667       0.00000000 </v>
   <v>      -0.13333333       0.36666667       0.00000000 </v>
   <v>      -0.10000000       0.36666667       0.00000000 </v>
   <v>      -0.06666667       0.36666667       0.00000000 </v>
   <v>      -0.03333333       0.36666667       0.00000000 </v>
   <v>       0.00000000       0.40000000       0.00000000 </v>
   <v>       0.03333333       0.40000000       0.00000000 </v>
   <v>       0.06666667       0.40000000       0.00000000 </v>
   <v>       0.10000000       0.40000000       0.00000000 </v>
   <v>       0.13333333       0.40000000       0.00000000 </v>
   <v>       0.16666667       0.40000000       0.00000000 </v>
   <v>       0.20000000       0.40000000       0.00000000 </v>
   <v>       0.23333333       0.40000000       0.00000000 </v>
   <v>       0.26666667       0.40000000       0.00000000 </v>
   <v>       0.30000000       0.40000000       0.00000000 </v>
   <v>       0.33333333       0.40000000       0.00000000 </v>
   <v>       0.36666667       0.40000000       0.00000000 </v>
   <v>       0.40000000       0.40000000       0.00000000 </v>
   <v>       0.43333333       0.40000000       0.00000000 </v>
   <v>       0.46666667       0.40000000       0.00000000 </v>
   <v>       0.50000000       0.40000000       0.00000000 </v>
   <v>      -0.46666667       0.40000000       0.00000000 </v>
   <v>      -0.43333333       0.40000000       0.00000000 </v>
   <v>      -0.40000000       0.40000000       0.00000000 </v>
   <v>      -0.36666667       0.40000000       0.00000000 </v>
   <v>      -0.33333333       0.40000000       0.00000000 </v>
   <v>      -0.30000000       0.40000000       0.00000000 </v>
   <v>      -0.26666667       0.40000000       0.00000000 </v>
   <v>      -0.23333333       0.40000000       0.00000000 </v>
   <v>      -0.20000000       0.40000000       0.00000000 </v>
   <v>      -0.16666667       0.40000000       0.00000000 </v>
   <v>      -0.13333333       0.40000000       0.00000000 </v>
   <v>      -0.10000000       0.40000000       0.00000000 </v>
   <v>      -0.06666667       0.40000000       0.00000000 </v>
   <v>      -0.03333333       0.40000000       0.00000000 </v>
   <v>       0.00000000       0.43333333       0.00000000 </v>
   <v>       0.03333333       0.43333333       0.00000000 </v>
   <v>       0.06666667       0.43333333       0.00000000 </v>
   <v>       0.10000000       0.43333333       0.00000000 </v>
   <v>       0.13333333       0.43333333       0.00000000 </v>
   <v>       0.16666667       0.43333333       0.00000000 </v>
   <v>       0.20000000       0.43333333       0.00000000 </v>
   <v>       0.23333333       0.43333333       0.00000000 </v>
   <v>       0.26666667       0.43333333       0.00000000 </v>
   <v>       0.30000000       0.43333333       0.00000000 </v>
   <v>       0.33333333       0.43333333       0.00000000 </v>
   <v>       0.36666667       0.43333333       0.00000000 </v>
   <v>       0.40000000       0.43333333       0.00000000 </v>
   <v>       0.43333333       0.43333333       0.00000000 </v>
   <v>       0.46666667       0.43333333       0.00000000 </v>
   <v>       0.50000000       0.43333333       0.00000000 </v>
   <v>      -0.46666667       0.43333333       0.00000000 </v>
   <v>      -0.43333333       0.43333333       0.00000000 </v>
   <v>      -0.40000000       0.43333333       0.00000000 </v>
   <v>      -0.36666667       0.43333333       0.00000000 </v>
   <v>      -0.33333333       0.43333333       0.00000000 </v>
   <v>      -0.30000000       0.43333333       0.00000000 </v>
   <v>      -0.26666667       0.43333333       0.00000000 </v>
   <v>      -0.23333333       0.43333333       0.00000000 </v>
   <v>      -0.20000000       0.43333333       0.00000000 </v>
   <v>      -0.16666667       0.43333333       0.00000000 </v>
   <v>      -0.13333333       0.43333333       0.00000000 </v>
   <v>      -0.10000000       0.43333333       0.00000000 </v>
   <v>      -0.06666667       0.43333333       0.00000000 </v>
   <v>      -0.03333333       0.43333333       0.00000000 </v>
   <v>       0.00000000       0.46666667       0.00000000 </v>
   <v>       0.03333333       0.46666667       0.00000000 </v>
   <v>       0.06666667       0.46666667       0.00000000 </v>
   <v>       0.10000000       0.46666667       0.00000000 </v>
   <v>       0.13333333       0.46666667       0.00000000 </v>
   <v>       0.16666667       0.46666667       0.00000000 </v>
   <v>       0.20000000       0.46666667       0.00000000 </v>
   <v>       0.23333333       0.46666667       0.00000000 </v>
   <v>       0.26666667       0.46666667       0.00000000 </v>
   <v>       0.30000000       0.46666667       0.00000000 </v>
   <v>       0.33333333       0.46666667       0.00000000 </v>
   <v>       0.36666667       0.46666667       0.00000000 </v>
   <v>       0.40000000       0.46666667       0.00000000 </v>
   <v>       0.43333333       0.46666667       0.00000000 </v>
   <v>       0.46666667       0.46666667       0.00000000 </v>
   <v>       0.50000000       0.46666667       0.00000000 </v>
   <v>      -0.46666667       0.46666667       0.00000000 </v>
   <v>      -0.43333333       0.46666667       0.00000000 </v>
   <v>      -0.40000000       0.46666667       0.00000000 </v>
   <v>      -0.36666667       0.46666667       0.00000000 </v>
   <v>      -0.33333333       0.46666667       0.00000000 </v>
   <v>      -0.30000000       0.46666667       0.00000000 </v>
   <v>      -0.26666667       0.46666667       0.00000000 </v>
   <v>      -0.23333333       0.46666667       0.00000000 </v>
   <v>      -0.20000000       0.46666667       0.00000000 </v>
   <v>      -0.16666667       0.46666667       0.00000000 </v>
   <v>      -0.13333333       0.46666667       0.00000000 </v>
   <v>      -0.10000000       0.46666667       0.00000000 </v>
   <v>      -0.06666667       0.46666667       0.00000000 </v>
   <v>      -0.03333333       0.46666667       0.00000000 </v>
   <v>       0.00000000       0.50000000       0.00000000 </v>
   <v>       0.03333333       0.50000000       0.00000000 </v>
   <v>       0.06666667       0.50000000       0.00000000 </v>
   <v>       0.10000000       0.50000000       0.00000000 </v>
   <v>       0.13333333       0.50000000       0.00000000 </v>
   <v>       0.16666667       0.50000000       0.00000000 </v>
   <v>       0.20000000       0.50000000       0.00000000 </v>
   <v>       0.23333333       0.50000000       0.00000000 </v>
   <v>       0.26666667       0.50000000       0.00000000 </v>
   <v>       0.30000000       0.50000000       0.00000000 </v>
   <v>       0.33333333       0.50000000       0.00000000 </v>
   <v>       0.36666667       0.50000000       0.00000000 </v>
   <v>       0.40000000       0.50000000       0.00000000 </v>
   <v>       0.43333333       0.50000000       0.00000000 </v>
   <v>       0.46666667       0.50000000       0.00000000 </v>
   <v>       0.50000000       0.50000000       0.00000000 </v>
  </varray>
  <varray name="weights" >
   <v>       0.00111111 </v>
   <v>       0.00222222 </v>
   <v>       0.00222222 </v>
   <v>       0.00222222 </v>
   <v>       0.00222222 </v>
   <v>       0.00222222 </v>
   <v>       0.00222222 </v>
   <v>       0.00222222 </v>
   <v>       0.00222222 </v>
   <v>       0.00222222 </v>
   <v>       0.00222222 </v>
   <v>       0.00222222 </v>
   <v>       0.00222222 </v>
   <v>       0.00222222 </v>
   <v>       0.00222222 </v>
   <v>       0.00111111 </v>
   <v>       0.00222222 </v>
   <v>       0.00222222 </v>
   <v>       0.00222222 </v>
   <v>       0.00222222 </v>
   <v>       0.00222222 </v>
   <v>       0.00222222 </v>
   <v>       0.00222222 </v>
   <v>       0.00222222 </v>
   <v>       0.00222222 </v>
   <v>       0.00222222 </v>
   <v>       0.00222222 </v>
   <v>       0.00222222 </v>
   <v>       0.00222222 </v>
   <v>       0.00222222 </v>
   <v>       0.00222222 </v>
   <v>       0.00222222 </v>
   <v>       0.00222222 </v>
   <v>       0.00222222 </v>
   <v>       0.00222222 </v>
   <v>       0.00222222 </v>
   <v>       0.00222222 </v>
   <v>       0.00222222 </v>
   <v>       0.00222222 </v>
   <v>       0.00222222 </v>
   <v>       0.00222222 </v>
   <v>       0.00222222 </v>
   <v>       0.00222222 </v>
   <v>       0.00222222 </v>
   <v>       0.00222222 </v>
   <v>       0.00222222 </v>
   <v>       0.00222222 </v>
   <v>       0.00222222 </v>
   <v>       0.00222222 </v>
   <v>       0.00222222 </v>
   <v>       0.00222222 </v>
   <v>       0.00222222 </v>
   <v>       0.00222222 </v>
   <v>       0.00222222 </v>
   <v>       0.00222222 </v>
   <v>       0.00222222 </v>
   <v>       0.00222222 </v>
   <v>       0.00222222 </v>
   <v>       0.00222222 </v>
   <v>       0.00222222 </v>
   <v>       0.00222222 </v>
   <v>       0.00222222 </v>
   <v>       0.00222222 </v>
   <v>       0.00222222 </v>
   <v>       0.00222222 </v>
   <v>       0.00222222 </v>
   <v>       0.00222222 </v>
   <v>       0.00222222 </v>
   <v>       0.00222222 </v>
   <v>       0.00222222 </v>
   <v>       0.00222222 </v>
   <v>       0.00222222 </v>
   <v>       0.00222222 </v>
   <v>       0.00222222 </v>
   <v>       0.00222222 </v>
   <v>       0.00222222 </v>
   <v>       0.00222222 </v>
   <v>       0.00222222 </v>
   <v>       0.00222222 </v>
   <v>       0.00222222 </v>
   <v>       0.00222222 </v>
   <v>       0.00222222 </v>
   <v>       0.00222222 </v>
   <v>       0.00222222 </v>
   <v>       0.00222222 </v>
   <v>       0.00222222 </v>
   <v>       0.00222222 </v>
   <v>       0.00222222 </v>
   <v>       0.00222222 </v>
   <v>       0.00222222 </v>
   <v>       0.00222222 </v>
   <v>       0.00222222 </v>
   <v>       0.00222222 </v>
   <v>       0.00222222 </v>
   <v>       0.00222222 </v>
   <v>       0.00222222 </v>
   <v>       0.00222222 </v>
   <v>       0.00222222 </v>
   <v>       0.00222222 </v>
   <v>       0.00222222 </v>
   <v>       0.00222222 </v>
   <v>       0.00222222 </v>
   <v>       0.00222222 </v>
   <v>       0.00222222 </v>
   <v>       0.00222222 </v>
   <v>       0.00222222 </v>
   <v>       0.00222222 </v>
   <v>       0.00222222 </v>
   <v>       0.00222222 </v>
   <v>       0.00222222 </v>
   <v>       0.00222222 </v>
   <v>       0.00222222 </v>
   <v>       0.00222222 </v>
   <v>       0.00222222 </v>
   <v>       0.00222222 </v>
   <v>       0.00222222 </v>
   <v>       0.00222222 </v>
   <v>       0.00222222 </v>
   <v>       0.00222222 </v>
   <v>       0.00222222 </v>
   <v>       0.00222222 </v>
   <v>       0.00222222 </v>
   <v>       0.00222222 </v>
   <v>       0.00222222 </v>
   <v>       0.00222222 </v>
   <v>       0.00222222 </v>
   <v>       0.00222222 </v>
   <v>       0.00222222 </v>
   <v>       0.00222222 </v>
   <v>       0.00222222 </v>
   <v>       0.00222222 </v>
   <v>       0.00222222 </v>
   <v>       0.00222222 </v>
   <v>       0.00222222 </v>
   <v>       0.00222222 </v>
   <v>       0.00222222 </v>
   <v>       0.00222222 </v>
   <v>       0.00222222 </v>
   <v>       0.00222222 </v>
   <v>       0.00222222 </v>
   <v>       0.00222222 </v>
   <v>       0.00222222 </v>
   <v>       0.00222222 </v>
   <v>       0.00222222 </v>
   <v>       0.00222222 </v>
   <v>       0.00222222 </v>
   <v>       0.00222222 </v>
   <v>       0.00222222 </v>
   <v>       0.00222222 </v>
   <v>       0.00222222 </v>
   <v>       0.00222222 </v>
   <v>       0.00222222 </v>
   <v>       0.00222222 </v>
   <v>       0.00222222 </v>
   <v>       0.00222222 </v>
   <v>       0.00222222 </v>
   <v>       0.00222222 </v>
   <v>       0.00222222 </v>
   <v>       0.00222222 </v>
   <v>       0.00222222 </v>
   <v>       0.00222222 </v>
   <v>       0.00222222 </v>
   <v>       0.00222222 </v>
   <v>       0.00222222 </v>
   <v>       0.00222222 </v>
   <v>       0.00222222 </v>
   <v>       0.00222222 </v>
   <v>       0.00222222 </v>
   <v>       0.00222222 </v>
   <v>       0.00222222 </v>
   <v>       0.00222222 </v>
   <v>       0.00222222 </v>
   <v>       0.00222222 </v>
   <v>       0.00222222 </v>
   <v>       0.00222222 </v>
   <v>       0.00222222 </v>
   <v>       0.00222222 </v>
   <v>       0.00222222 </v>
   <v>       0.00222222 </v>
   <v>       0.00222222 </v>
   <v>       0.00222222 </v>
   <v>       0.00222222 </v>
   <v>       0.00222222 </v>
   <v>       0.00222222 </v>
   <v>       0.00222222 </v>
   <v>       0.00222222 </v>
   <v>       0.00222222 </v>
   <v>       0.00222222 </v>
   <v>       0.00222222 </v>
   <v>       0.00222222 </v>
   <v>       0.00222222 </v>
   <v>       0.00222222 </v>
   <v>       0.00222222 </v>
   <v>       0.00222222 </v>
   <v>       0.00222222 </v>
   <v>       0.00222222 </v>
   <v>       0.00222222 </v>
   <v>       0.00222222 </v>
   <v>       0.00222222 </v>
   <v>       0.00222222 </v>
   <v>       0.00222222 </v>
   <v>       0.00222222 </v>
   <v>       0.00222222 </v>
   <v>       0.00222222 </v>
   <v>       0.00222222 </v>
   <v>       0.00222222 </v>
   <v>       0.00222222 </v>
   <v>       0.00222222 </v>
   <v>       0.00222222 </v>
   <v>       0.00222222 </v>
   <v>       0.00222222 </v>
   <v>       0.00222222 </v>
   <v>       0.00222222 </v>
   <v>       0.00222222 </v>
   <v>       0.00222222 </v>
   <v>       0.00222222 </v>
   <v>       0.00222222 </v>
   <v>       0.00222222 </v>
   <v>       0.00222222 </v>
   <v>       0.00222222 </v>
   <v>       0.00222222 </v>
   <v>       0.00222222 </v>
   <v>       0.00222222 </v>
   <v>       0.00222222 </v>
   <v>       0.00222222 </v>
   <v>       0.00222222 </v>
   <v>       0.00222222 </v>
   <v>       0.00222222 </v>
   <v>       0.00222222 </v>
   <v>       0.00222222 </v>
   <v>       0.00222222 </v>
   <v>       0.00222222 </v>
   <v>       0.00222222 </v>
   <v>       0.00222222 </v>
   <v>       0.00222222 </v>
   <v>       0.00222222 </v>
   <v>       0.00222222 </v>
   <v>       0.00222222 </v>
   <v>       0.00222222 </v>
   <v>       0.00222222 </v>
   <v>       0.00222222 </v>
   <v>       0.00222222 </v>
   <v>       0.00222222 </v>
   <v>       0.00222222 </v>
   <v>       0.00222222 </v>
   <v>       0.00222222 </v>
   <v>       0.00222222 </v>
   <v>       0.00222222 </v>
   <v>       0.00222222 </v>
   <v>       0.00222222 </v>
   <v>       0.00222222 </v>
   <v>       0.00222222 </v>
   <v>       0.00222222 </v>
   <v>       0.00222222 </v>
   <v>       0.00222222 </v>
   <v>       0.00222222 </v>
   <v>       0.00222222 </v>
   <v>       0.00222222 </v>
   <v>       0.00222222 </v>
   <v>       0.00222222 </v>
   <v>       0.00222222 </v>
   <v>       0.00222222 </v>
   <v>       0.00222222 </v>
   <v>       0.00222222 </v>
   <v>       0.00222222 </v>
   <v>       0.00222222 </v>
   <v>       0.00222222 </v>
   <v>       0.00222222 </v>
   <v>       0.00222222 </v>
   <v>       0.00222222 </v>
   <v>       0.00222222 </v>
   <v>       0.00222222 </v>
   <v>       0.00222222 </v>
   <v>       0.00222222 </v>
   <v>       0.00222222 </v>
   <v>       0.00222222 </v>
   <v>       0.00222222 </v>
   <v>       0.00222222 </v>
   <v>       0.00222222 </v>
   <v>       0.00222222 </v>
   <v>       0.00222222 </v>
   <v>       0.00222222 </v>
   <v>       0.00222222 </v>
   <v>       0.00222222 </v>
   <v>       0.00222222 </v>
   <v>       0.00222222 </v>
   <v>       0.00222222 </v>
   <v>       0.00222222 </v>
   <v>       0.00222222 </v>
   <v>       0.00222222 </v>
   <v>       0.00222222 </v>
   <v>       0.00222222 </v>
   <v>       0.00222222 </v>
   <v>       0.00222222 </v>
   <v>       0.00222222 </v>
   <v>       0.00222222 </v>
   <v>       0.00222222 </v>
   <v>       0.00222222 </v>
   <v>       0.00222222 </v>
   <v>       0.00222222 </v>
   <v>       0.00222222 </v>
   <v>       0.00222222 </v>
   <v>       0.00222222 </v>
   <v>       0.00222222 </v>
   <v>       0.00222222 </v>
   <v>       0.00222222 </v>
   <v>       0.00222222 </v>
   <v>       0.00222222 </v>
   <v>       0.00222222 </v>
   <v>       0.00222222 </v>
   <v>       0.00222222 </v>
   <v>       0.00222222 </v>
   <v>       0.00222222 </v>
   <v>       0.00222222 </v>
   <v>       0.00222222 </v>
   <v>       0.00222222 </v>
   <v>       0.00222222 </v>
   <v>       0.00222222 </v>
   <v>       0.00222222 </v>
   <v>       0.00222222 </v>
   <v>       0.00222222 </v>
   <v>       0.00222222 </v>
   <v>       0.00222222 </v>
   <v>       0.00222222 </v>
   <v>       0.00222222 </v>
   <v>       0.00222222 </v>
   <v>       0.00222222 </v>
   <v>       0.00222222 </v>
   <v>       0.00222222 </v>
   <v>       0.00222222 </v>
   <v>       0.00222222 </v>
   <v>       0.00222222 </v>
   <v>       0.00222222 </v>
   <v>       0.00222222 </v>
   <v>       0.00222222 </v>
   <v>       0.00222222 </v>
   <v>       0.00222222 </v>
   <v>       0.00222222 </v>
   <v>       0.00222222 </v>
   <v>       0.00222222 </v>
   <v>       0.00222222 </v>
   <v>       0.00222222 </v>
   <v>       0.00222222 </v>
   <v>       0.00222222 </v>
   <v>       0.00222222 </v>
   <v>       0.00222222 </v>
   <v>       0.00222222 </v>
   <v>       0.00222222 </v>
   <v>       0.00222222 </v>
   <v>       0.00222222 </v>
   <v>       0.00222222 </v>
   <v>       0.00222222 </v>
   <v>       0.00222222 </v>
   <v>       0.00222222 </v>
   <v>       0.00222222 </v>
   <v>       0.00222222 </v>
   <v>       0.00222222 </v>
   <v>       0.00222222 </v>
   <v>       0.00222222 </v>
   <v>       0.00222222 </v>
   <v>       0.00222222 </v>
   <v>       0.00222222 </v>
   <v>       0.00222222 </v>
   <v>       0.00222222 </v>
   <v>       0.00222222 </v>
   <v>       0.00222222 </v>
   <v>       0.00222222 </v>
   <v>       0.00222222 </v>
   <v>       0.00222222 </v>
   <v>       0.00222222 </v>
   <v>       0.00222222 </v>
   <v>       0.00222222 </v>
   <v>       0.00222222 </v>
   <v>       0.00222222 </v>
   <v>       0.00222222 </v>
   <v>       0.00222222 </v>
   <v>       0.00222222 </v>
   <v>       0.00222222 </v>
   <v>       0.00222222 </v>
   <v>       0.00222222 </v>
   <v>       0.00222222 </v>
   <v>       0.00222222 </v>
   <v>       0.00222222 </v>
   <v>       0.00222222 </v>
   <v>       0.00222222 </v>
   <v>       0.00222222 </v>
   <v>       0.00222222 </v>
   <v>       0.00222222 </v>
   <v>       0.00222222 </v>
   <v>       0.00222222 </v>
   <v>       0.00222222 </v>
   <v>       0.00222222 </v>
   <v>       0.00222222 </v>
   <v>       0.00222222 </v>
   <v>       0.00222222 </v>
   <v>       0.00222222 </v>
   <v>       0.00222222 </v>
   <v>       0.00222222 </v>
   <v>       0.00222222 </v>
   <v>       0.00222222 </v>
   <v>       0.00222222 </v>
   <v>       0.00222222 </v>
   <v>       0.00222222 </v>
   <v>       0.00222222 </v>
   <v>       0.00222222 </v>
   <v>       0.00222222 </v>
   <v>       0.00222222 </v>
   <v>       0.00222222 </v>
   <v>       0.00222222 </v>
   <v>       0.00222222 </v>
   <v>       0.00222222 </v>
   <v>       0.00222222 </v>
   <v>       0.00222222 </v>
   <v>       0.00222222 </v>
   <v>       0.00222222 </v>
   <v>       0.00222222 </v>
   <v>       0.00222222 </v>
   <v>       0.00222222 </v>
   <v>       0.00222222 </v>
   <v>       0.00222222 </v>
   <v>       0.00222222 </v>
   <v>       0.00222222 </v>
   <v>       0.00222222 </v>
   <v>       0.00222222 </v>
   <v>       0.00222222 </v>
   <v>       0.00222222 </v>
   <v>       0.00222222 </v>
   <v>       0.00222222 </v>
   <v>       0.00222222 </v>
   <v>       0.00222222 </v>
   <v>       0.00222222 </v>
   <v>       0.00222222 </v>
   <v>       0.00222222 </v>
   <v>       0.00222222 </v>
   <v>       0.00222222 </v>
   <v>       0.00222222 </v>
   <v>       0.00111111 </v>
   <v>       0.00222222 </v>
   <v>       0.00222222 </v>
   <v>       0.00222222 </v>
   <v>       0.00222222 </v>
   <v>       0.00222222 </v>
   <v>       0.00222222 </v>
   <v>       0.00222222 </v>
   <v>       0.00222222 </v>
   <v>       0.00222222 </v>
   <v>       0.00222222 </v>
   <v>       0.00222222 </v>
   <v>       0.00222222 </v>
   <v>       0.00222222 </v>
   <v>       0.00222222 </v>
   <v>       0.00111111 </v>
  </varray>
 </kpoints>
 <parameters>
  <separator name="general" >
   <i type="string" name="SYSTEM">unknown system</i>
   <i type="logical" name="LCOMPAT"> F  </i>
  </separator>
  <separator name="electronic" >
   <i type="string" name="PREC">accura</i>
   <i name="ENMAX">    400.00000000</i>
   <i name="ENAUG">    644.87300000</i>
   <i name="EDIFF">      0.00000010</i>
   <i type="int" name="IALGO">    68</i>
   <i type="int" name="IWAVPR">    10</i>
   <i type="int" name="NBANDS">     8</i>
   <i name="NELECT">      8.00000000</i>
   <i type="int" name="TURBO">     0</i>
   <i type="int" name="IRESTART">     0</i>
   <i type="int" name="NREBOOT">     0</i>
   <i type="int" name="NMIN">     0</i>
   <i name="EREF">      0.00000000</i>
   <separator name="electronic smearing" >
    <i type="int" name="ISMEAR">     1</i>
    <i name="SIGMA">      0.20000000</i>
    <i name="KSPACING">      0.50000000</i>
    <i type="logical" name="KGAMMA"> T  </i>
   </separator>
   <separator name="electronic projectors" >
    <i type="logical" name="LREAL"> F  </i>
    <v name="ROPT">      0.00000000</v>
    <i type="int" name="LMAXPAW">  -100</i>
    <i type="int" name="LMAXMIX">     2</i>
    <i type="logical" name="NLSPLINE"> F  </i>
   </separator>
   <separator name="electronic startup" >
    <i type="int" name="ISTART">     1</i>
    <i type="int" name="ICHARG">    11</i>
    <i type="int" name="INIWAV">     1</i>
   </separator>
   <separator name="electronic spin" >
    <i type="int" name="ISPIN">     1</i>
    <i type="logical" name="LNONCOLLINEAR"> F  </i>
    <v name="MAGMOM">      1.00000000      1.00000000</v>
    <i name="NUPDOWN">     -1.00000000</i>
    <i type="logical" name="LSORBIT"> F  </i>
    <v name="SAXIS">      0.00000000      0.00000000      1.00000000</v>
    <i type="logical" name="LSPIRAL"> F  </i>
    <v name="QSPIRAL">      0.00000000      0.00000000      0.00000000</v>
    <i type="logical" name="LZEROZ"> F  </i>
   </separator>
   <separator name="electronic exchange-correlation" >
    <i type="logical" name="LASPH"> F  </i>
    <i type="logical" name="LMETAGGA"> F  </i>
   </separator>
   <separator name="electronic convergence" >
    <i type="int" name="NELM">    60</i>
    <i type="int" name="NELMDL">     0</i>
    <i type="int" name="NELMIN">     2</i>
    <i name="ENINI">    400.00000000</i>
    <separator name="electronic convergence detail" >
     <i type="logical" name="LDIAG"> T  </i>
     <i type="logical" name="LSUBROT"> F  </i>
     <i name="WEIMIN">      0.00000000</i>
     <i name="EBREAK">      0.00000000</i>
     <i name="DEPER">      0.30000000</i>
     <i type="int" name="NRMM">     4</i>
     <i name="TIME">      0.40000000</i>
    </separator>
   </separator>
   <separator name="electronic mixer" >
    <i name="AMIX">      0.40000000</i>
    <i name="BMIX">      1.00000000</i>
    <i name="AMIN">      0.10000000</i>
    <i name="AMIX_MAG">      1.60000000</i>
    <i name="BMIX_MAG">      1.00000000</i>
    <separator name="electronic mixer details" >
     <i type="int" name="IMIX">     4</i>
     <i type="logical" name="MIXFIRST"> F  </i>
     <i type="int" name="MAXMIX">   -45</i>
     <i name="WC">    100.00000000</i>
     <i type="int" name="INIMIX">     1</i>
     <i type="int" name="MIXPRE">     1</i>
     <i type="int" name="MREMOVE">     5</i>
    </separator>
   </separator>
   <separator name="electronic dipolcorrection" >
    <i type="logical" name="LDIPOL"> T  </i>
    <i type="logical" name="LMONO"> F  </i>
    <i type="int" name="IDIPOL">     3</i>
    <i name="EPSILON">      1.00000000</i>
    <v name="DIPOL">   -100.00000000   -100.00000000   -100.00000000</v>
    <i name="EFIELD">      0.00000000</i>
   </separator>
  </separator>
  <separator name="grids" >
   <i type="int" name="NGX">    16</i>
   <i type="int" name="NGY">    16</i>
   <i type="int" name="NGZ">   140</i>
   <i type="int" name="NGXF">    32</i>
   <i type="int" name="NGYF">    32</i>
   <i type="int" name="NGZF">   280</i>
   <i type="logical" name="ADDGRID"> F  </i>
  </separator>
  <separator name="ionic" >
   <i type="int" name="NSW">     0</i>
   <i type="int" name="IBRION">    -1</i>
   <i type="int" name="ISIF">     2</i>
   <i name="PSTRESS">      0.00000000</i>
   <i name="EDIFFG">      0.00000100</i>
   <i type="int" name="NFREE">     0</i>
   <i name="POTIM">      0.50000000</i>
   <i name="SMASS">     -3.00000000</i>
   <i name="SCALEE">      1.00000000</i>
  </separator>
  <separator name="ionic md" >
   <i name="TEBEG">      0.00010000</i>
   <i name="TEEND">      0.00010000</i>
   <i type="int" name="NBLOCK">     1</i>
   <i type="int" name="KBLOCK">     1</i>
   <i type="int" name="NPACO">   256</i>
   <i name="APACO">     16.00000000</i>
  </separator>
  <separator name="symmetry" >
   <i type="int" name="ISYM">     0</i>
   <i name="SYMPREC">      0.00001000</i>
  </separator>
  <separator name="dos" >
   <i type="logical" name="LORBIT"> T  </i>
   <v name="RWIGS">     -1.00000000</v>
   <i type="int" name="NEDOS">   301</i>
   <i name="EMIN">     10.00000000</i>
   <i name="EMAX">    -10.00000000</i>
   <i name="EFERMI">      0.00000000</i>
  </separator>
  <separator name="writing" >
   <i type="int" name="NWRITE">     2</i>
   <i type="logical" name="LWAVE"> T  </i>
   <i type="logical" name="LCHARG"> T  </i>
   <i type="logical" name="LPARD"> F  </i>
   <i type="logical" name="LVTOT"> F  </i>
   <i type="logical" name="LVHAR"> T  </i>
   <i type="logical" name="LELF"> F  </i>
   <i type="logical" name="LOPTICS"> F  </i>
   <v name="STM">      0.00000000      0.00000000      0.00000000      0.00000000      0.00000000      0.00000000      0.00000000</v>
  </separator>
  <separator name="performance" >
   <i type="int" name="NPAR">     1</i>
   <i type="int" name="NSIM">     4</i>
   <i type="int" name="NBLK">    -1</i>
   <i type="logical" name="LPLANE"> T  </i>
   <i type="logical" name="LSCALAPACK"> T  </i>
   <i type="logical" name="LSCAAWARE"> F  </i>
   <i type="logical" name="LSCALU"> F  </i>
   <i type="logical" name="LASYNC"> F  </i>
   <i type="logical" name="LORBITALREAL"> F  </i>
  </separator>
  <separator name="miscellaneous" >
   <i type="int" name="IDIOT">     3</i>
   <i type="logical" name="LMUSIC"> F  </i>
   <v name="POMASS">     12.01100000</v>
   <v name="DARWINR">      0.00000000</v>
   <v name="DARWINV">      1.00000000</v>
   <i type="logical" name="LCORR"> T  </i>
  </separator>
  <i type="logical" name="GGA_COMPAT"> T  </i>
  <i type="logical" name="LBERRY"> F  </i>
  <i type="int" name="ICORELEVEL">     0</i>
  <i type="logical" name="LDAU"> F  </i>
  <i type="int" name="I_CONSTRAINED_M">     0</i>
  <separator name="electronic exchange-correlation" >
   <i type="string" name="GGA">--</i>
   <i type="int" name="VOSKOWN">     0</i>
   <i type="logical" name="LHFCALC"> F  </i>
   <i type="string" name="PRECFOCK"></i>
   <i type="logical" name="LSYMGRAD"> F  </i>
   <i type="logical" name="LHFONE"> F  </i>
   <i type="logical" name="LRHFCALC"> F  </i>
   <i type="logical" name="LTHOMAS"> F  </i>
   <i type="logical" name="LMODELHF"> F  </i>
   <i name="ENCUT4O">     -1.00000000</i>
   <i type="int" name="EXXOEP">     0</i>
   <i type="int" name="FOURORBIT">     0</i>
   <i name="AEXX">      0.00000000</i>
   <i name="HFALPHA">      0.00000000</i>
   <i name="MCALPHA">      0.00000000</i>
   <i name="ALDAX">      1.00000000</i>
   <i name="AGGAX">      1.00000000</i>
   <i name="ALDAC">      1.00000000</i>
   <i name="AGGAC">      1.00000000</i>
   <i type="int" name="NKREDX">     1</i>
   <i type="int" name="NKREDY">     1</i>
   <i type="int" name="NKREDZ">     1</i>
   <i type="logical" name="SHIFTRED"> F  </i>
   <i type="logical" name="ODDONLY"> F  </i>
   <i type="logical" name="EVENONLY"> F  </i>
   <i type="int" name="LMAXFOCK">     0</i>
   <i type="int" name="NMAXFOCKAE">     0</i>
   <i type="logical" name="LFOCKAEDFT"> F  </i>
   <i name="HFSCREEN">      0.00000000</i>
   <i name="HFSCREENC">      0.00000000</i>
   <i type="int" name="NBANDSGWLOW">     0</i>
  </separator>
  <separator name="vdW DFT" >
   <i type="logical" name="LUSE_VDW"> F  </i>
   <i name="Zab_VDW">     -0.84910000</i>
   <i name="PARAM1">      0.12340000</i>
   <i name="PARAM2">      1.00000000</i>
   <i name="PARAM3">      0.00000000</i>
  </separator>
  <separator name="model GW" >
   <i type="int" name="MODEL_GW">     0</i>
   <i name="MODEL_EPS0">     31.82968116</i>
   <i name="MODEL_ALPHA">      1.00000000</i>
  </separator>
  <separator name="linear response parameters" >
   <i type="logical" name="LEPSILON"> F  </i>
   <i type="logical" name="LRPA"> F  </i>
   <i type="logical" name="LNABLA"> F  </i>
   <i type="logical" name="LVEL"> F  </i>
   <i type="int" name="KINTER">     0</i>
   <i name="CSHIFT">      0.10000000</i>
   <i name="OMEGAMAX">     -1.00000000</i>
   <i name="DEG_THRESHOLD">      0.00200000</i>
  </separator>
  <separator name="orbital magnetization" >
   <i type="logical" name="NUCIND"> F  </i>
   <v name="MAGPOS">      0.00000000      0.00000000      0.00000000</v>
   <i type="logical" name="LNICSALL"> T  </i>
   <i type="logical" name="ORBITALMAG"> F  </i>
   <i type="logical" name="LMAGBLOCH"> F  </i>
   <i type="logical" name="LCHIMAG"> F  </i>
   <i type="logical" name="LGAUGE"> T  </i>
   <i type="int" name="MAGATOM">     0</i>
   <v name="MAGDIPOL">      0.00000000      0.00000000      0.00000000</v>
   <v name="AVECCONST">      0.00000000      0.00000000      0.00000000</v>
  </separator>
  <separator name="response functions" >
   <i type="logical" name="LADDER"> F  </i>
   <i type="logical" name="LFXC"> F  </i>
   <i type="logical" name="LHARTREE"> T  </i>
   <i type="int" name="IBSE">     0</i>
   <v type="int" name="KPOINT">    -1     0     0     0</v>
   <i type="logical" name="LTCTE"> F  </i>
   <i type="logical" name="LTETE"> F  </i>
   <i type="logical" name="LTRIPLET"> F  </i>
   <i type="logical" name="LFXCEPS"> F  </i>
   <i type="logical" name="LFXHEG"> F  </i>
   <i type="int" name="NATURALO">     0</i>
   <i type="logical" name="L2ORDER"> F  </i>
   <i type="logical" name="LUSEW"> F  </i>
   <i name="ENCUTGW">     -2.00000000</i>
   <i name="ENCUTGWSOFT">     -2.00000000</i>
   <i name="ENCUTLF">     -1.00000000</i>
   <i type="int" name="LMAXMP2">    -1</i>
   <i name="SCISSOR">      0.00000000</i>
   <i type="int" name="NOMEGA">     0</i>
   <i type="int" name="NOMEGAR">     0</i>
   <i type="int" name="NBANDSGW">    -1</i>
   <i type="int" name="NBANDSO">    -1</i>
   <i type="int" name="NBANDSV">    -1</i>
   <i type="int" name="NELM">     1</i>
   <i type="int" name="NELMHF">     1</i>
   <i type="int" name="DIM">     3</i>
   <i type="int" name="ANTIRES">     0</i>
   <i name="OMEGAMAX">    -30.00000000</i>
   <i name="OMEGAMIN">    -30.00000000</i>
   <i name="OMEGATL">   -200.00000000</i>
   <i type="int" name="OMEGAGRID">     0</i>
   <i name="CSHIFT">     -0.10000000</i>
   <i type="logical" name="SELFENERGY"> F  </i>
   <i type="logical" name="LSPECTRAL"> F  </i>
   <i type="logical" name="LSPECTRALGW"> F  </i>
   <i type="logical" name="LSINGLES"> F  </i>
   <i type="logical" name="LFERMIGW"> F  </i>
   <i type="logical" name="ODDONLYGW"> F  </i>
   <i type="logical" name="EVENONLYGW"> F  </i>
   <i type="int" name="NKREDLFX">     1</i>
   <i type="int" name="NKREDLFY">     1</i>
   <i type="int" name="NKREDLFZ">     1</i>
   <i type="int" name="MAXMEM">  1800</i>
   <i type="int" name="TELESCOPE">     0</i>
   <i type="int" name="TAUPAR">     1</i>
   <i type="int" name="OMEGAPAR">    -1</i>
   <i name="LAMBDA">      1.00000000</i>
  </separator>
  <separator name="External order field" >
   <i name="OFIELD_KAPPA">      0.00000000</i>
   <v name="OFIELD_K">      0.00000000      0.00000000      0.00000000</v>
   <i name="OFIELD_Q6_NEAR">      0.00000000</i>
   <i name="OFIELD_Q6_FAR">      0.00000000</i>
   <i name="OFIELD_A">      0.00000000</i>
  </separator>
 </parameters>
 <atominfo>
  <atoms>       2 </atoms>
  <types>       1 </types>
  <array name="atoms" >
   <dimension dim="1">ion</dimension>
   <field type="string">element</field>
   <field type="int">atomtype</field>
   <set>
    <rc><c>C </c><c>   1</c></rc>
    <rc><c>C </c><c>   1</c></rc>
   </set>
  </array>
  <array name="atomtypes" >
   <dimension dim="1">type</dimension>
   <field type="int">atomspertype</field>
   <field type="string">element</field>
   <field>mass</field>
   <field>valence</field>
   <field type="string">pseudopotential</field>
   <set>
    <rc><c>   2</c><c>C </c><c>     12.01100000</c><c>      4.00000000</c><c>  PAW_PBE C 08Apr2002                   </c></rc>
   </set>
  </array>
 </atominfo>
 <structure name="initialpos" >
  <crystal>
   <varray name="basis" >
    <v>       2.14341287      -1.23750000       0.00000000 </v>
    <v>       2.14341287       1.23750000       0.00000000 </v>
    <v>       0.00000000       0.00000000      20.00000000 </v>
   </varray>
   <i name="volume">    106.09893719 </i>
   <varray name="rec_basis" >
    <v>       0.23327284      -0.40404040       0.00000000 </v>
    <v>       0.23327284       0.40404040      -0.00000000 </v>
    <v>      -0.00000000       0.00000000       0.05000000 </v>
   </varray>
  </crystal>
  <varray name="positions" >
   <v>       0.00000000       0.00000000       0.00000000 </v>
   <v>       0.33333333       0.33333333       0.00000000 </v>
  </varray>
 </structure>
 <calculation>
  <scstep>
   <time name="dav">  192.06   24.04</time>
   <time name="total">  192.83   24.20</time>
   <dipole>
    <v name="dipole">      0.00000000       0.00000000       0.00000276 </v>
    <i name="Tr[quadrupol]">     -4.59808996 </i>
    <i name="Echarged">      0.00000000 </i>
    <i name="Edipol_quadrupol">      0.00000000 </i>
    <i name="Eion">      0.00000000 </i>
   </dipole>
   <energy>
    <i name="alphaZ">      3.09699888 </i>
    <i name="ewald">   1283.42325059 </i>
    <i name="hartreedc">  -1530.27359230 </i>
    <i name="XCdc">     27.47671583 </i>
    <i name="pawpsdc">    842.71371976 </i>
    <i name="pawaedc">   -844.05982391 </i>
    <i name="eentropy">     -0.00023314 </i>
    <i name="bandstr">    -94.41964340 </i>
    <i name="atom">    294.25444774 </i>
    <i name="e_fr_energy">    -17.78815994 </i>
    <i name="e_wo_entrp">    -17.78792680 </i>
    <i name="e_0_energy">    -17.78808223 </i>
   </energy>
  </scstep>
  <scstep>
   <time name="diag">   35.64    5.09</time>
   <time name="diis">  152.36   19.20</time>
   <time name="orth">    0.68    0.09</time>
   <time name="total">  188.82   24.39</time>
   <dipole>
    <v name="dipole">      0.00000000       0.00000000       0.00000276 </v>
    <i name="Tr[quadrupol]">     -4.59808996 </i>
    <i name="Echarged">      0.00000000 </i>
    <i name="Edipol_quadrupol">      0.00000000 </i>
    <i name="Eion">      0.00000000 </i>
   </dipole>
   <energy>
    <i name="e_fr_energy">    -18.44422092 </i>
    <i name="e_wo_entrp">    -18.44398779 </i>
    <i name="e_0_energy">    -18.44414321 </i>
   </energy>
  </scstep>
  <scstep>
   <time name="diag">   35.49    5.06</time>
   <time name="diis">  183.20   23.06</time>
   <time name="orth">    0.67    0.08</time>
   <time name="total">  219.50   28.23</time>
   <dipole>
    <v name="dipole">      0.00000000       0.00000000       0.00000276 </v>
    <i name="Tr[quadrupol]">     -4.59808996 </i>
    <i name="Echarged">      0.00000000 </i>
    <i name="Edipol_quadrupol">      0.00000000 </i>
    <i name="Eion">      0.00000000 </i>
   </dipole>
   <energy>
    <i name="e_fr_energy">    -18.46202454 </i>
    <i name="e_wo_entrp">    -18.46179142 </i>
    <i name="e_0_energy">    -18.46194683 </i>
   </energy>
  </scstep>
  <scstep>
   <time name="diag">   35.68    5.09</time>
   <time name="diis">  193.38   24.33</time>
   <time name="orth">    0.71    0.09</time>
   <time name="total">  229.90   29.52</time>
   <dipole>
    <v name="dipole">      0.00000000       0.00000000       0.00000276 </v>
    <i name="Tr[quadrupol]">     -4.59808996 </i>
    <i name="Echarged">      0.00000000 </i>
    <i name="Edipol_quadrupol">      0.00000000 </i>
    <i name="Eion">      0.00000000 </i>
   </dipole>
   <energy>
    <i name="e_fr_energy">    -18.46322407 </i>
    <i name="e_wo_entrp">    -18.46299094 </i>
    <i name="e_0_energy">    -18.46314636 </i>
   </energy>
  </scstep>
  <scstep>
   <time name="diag">   35.70    5.09</time>
   <time name="diis">  193.29   24.31</time>
   <time name="orth">    0.73    0.09</time>
   <time name="total">  229.86   29.52</time>
   <dipole>
    <v name="dipole">      0.00000000       0.00000000       0.00000276 </v>
    <i name="Tr[quadrupol]">     -4.59808996 </i>
    <i name="Echarged">      0.00000000 </i>
    <i name="Edipol_quadrupol">      0.00000000 </i>
    <i name="Eion">      0.00000000 </i>
   </dipole>
   <energy>
    <i name="e_fr_energy">    -18.46331525 </i>
    <i name="e_wo_entrp">    -18.46308212 </i>
    <i name="e_0_energy">    -18.46323754 </i>
   </energy>
  </scstep>
  <scstep>
   <time name="diag">   35.76    5.10</time>
   <time name="diis">  188.77   23.80</time>
   <time name="orth">    0.68    0.09</time>
   <time name="total">  225.36   29.00</time>
   <dipole>
    <v name="dipole">      0.00000000       0.00000000       0.00000276 </v>
    <i name="Tr[quadrupol]">     -4.59808996 </i>
    <i name="Echarged">      0.00000000 </i>
    <i name="Edipol_quadrupol">      0.00000000 </i>
    <i name="Eion">      0.00000000 </i>
   </dipole>
   <energy>
    <i name="e_fr_energy">    -18.46332051 </i>
    <i name="e_wo_entrp">    -18.46308738 </i>
    <i name="e_0_energy">    -18.46324280 </i>
   </energy>
  </scstep>
  <scstep>
   <time name="diag">   35.76    5.10</time>
   <time name="diis">  164.52   20.69</time>
   <time name="orth">    0.66    0.08</time>
   <time name="total">  201.08   25.89</time>
   <dipole>
    <v name="dipole">      0.00000000       0.00000000       0.00000276 </v>
    <i name="Tr[quadrupol]">     -4.59808996 </i>
    <i name="Echarged">      0.00000000 </i>
    <i name="Edipol_quadrupol">      0.00000000 </i>
    <i name="Eion">      0.00000000 </i>
   </dipole>
   <energy>
    <i name="e_fr_energy">    -18.46332086 </i>
    <i name="e_wo_entrp">    -18.46308773 </i>
    <i name="e_0_energy">    -18.46324315 </i>
   </energy>
  </scstep>
  <scstep>
   <time name="diag">   35.68    5.09</time>
   <time name="diis">  150.48   18.94</time>
   <time name="orth">    0.66    0.08</time>
   <time name="total">  186.94   24.13</time>
   <dipole>
    <v name="dipole">      0.00000000       0.00000000       0.00000276 </v>
    <i name="Tr[quadrupol]">     -4.59808996 </i>
    <i name="Echarged">      0.00000000 </i>
    <i name="Edipol_quadrupol">      0.00000000 </i>
    <i name="Eion">      0.00000000 </i>
   </dipole>
   <energy>
    <i name="alphaZ">      3.09699888 </i>
    <i name="ewald">   1283.42325059 </i>
    <i name="hartreedc">  -1530.27359230 </i>
    <i name="XCdc">     27.47671583 </i>
    <i name="pawpsdc">    842.71371976 </i>
    <i name="pawaedc">   -844.05982391 </i>
    <i name="eentropy">     -0.00023313 </i>
    <i name="bandstr">    -95.09480435 </i>
    <i name="atom">    294.25444774 </i>
    <i name="e_fr_energy">    -18.46332089 </i>
    <i name="e_wo_entrp">    -18.46308776 </i>
    <i name="e_0_energy">    -18.46324318 </i>
   </energy>
  </scstep>
  <structure>
   <crystal>
    <varray name="basis" >
     <v>       2.14341287      -1.23750000       0.00000000 </v>
     <v>       2.14341287       1.23750000       0.00000000 </v>
     <v>       0.00000000       0.00000000      20.00000000 </v>
    </varray>
    <i name="volume">    106.09893719 </i>
    <varray name="rec_basis" >
     <v>       0.23327284      -0.40404040       0.00000000 </v>
     <v>       0.23327284       0.40404040      -0.00000000 </v>
     <v>      -0.00000000       0.00000000       0.05000000 </v>
    </varray>
   </crystal>
   <varray name="positions" >
    <v>       0.00000000       0.00000000       0.00000000 </v>
    <v>       0.33333333       0.33333333       0.00000000 </v>
   </varray>
  </structure>
  <varray name="forces" >
   <v>       0.00004060       0.00000803       0.00000022 </v>
   <v>      -0.00004060      -0.00000803      -0.00000022 </v>
  </varray>
  <varray name="stress" >
   <v>      -9.23682335      -0.00015388       0.00000097 </v>
   <v>      -0.00015387      -9.23413797       0.00000120 </v>
   <v>       0.00000094       0.00000116      -4.26793126 </v>
  </varray>
  <energy>
   <i name="e_fr_energy">    -18.46332089 </i>
   <i name="e_wo_entrp">    -18.46324318 </i>
   <i name="e_0_energy">     -0.00023313 </i>
  </energy>
  <time name="totalsc"> 1681.60  220.32</time>
  <eigenvalues>
   <array>
    <dimension dim="1">band</dimension>
    <dimension dim="2">kpoint</dimension>
    <dimension dim="3">spin</dimension>
    <field>eigene</field>
    <field>occ</field>
    <set>
     <set comment="spin 1">
      <set comment="kpoint 1">
       <r>  -22.2203    1.0000 </r>
       <r>  -10.3322    1.0000 </r>
       <r>   -5.8214    1.0000 </r>
       <r>   -5.8214    1.0000 </r>
       <r>    0.5130   -0.0000 </r>
       <r>    1.3003   -0.0000 </r>
       <r>    1.6239   -0.0000 </r>
       <r>    2.5441   -0.0000 </r>
      </set>
      <set comment="kpoint 2">
       <r>  -22.1942    1.0000 </r>
       <r>  -10.3011    1.0000 </r>
       <r>   -5.9296    1.0000 </r>
       <r>   -5.8782    1.0000 </r>
       <r>    0.5484   -0.0000 </r>
       <r>    1.3362   -0.0000 </r>
       <r>    1.6602   -0.0000 </r>
       <r>    2.7753    0.0000 </r>
      </set>
      <set comment="kpoint 3">
       <r>  -22.1159    1.0000 </r>
       <r>  -10.2079    1.0000 </r>
       <r>   -6.2444    1.0000 </r>
       <r>   -6.0408    1.0000 </r>
       <r>    0.6546   -0.0000 </r>
       <r>    1.4437   -0.0000 </r>
       <r>    1.7689   -0.0000 </r>
       <r>    3.1564    0.0000 </r>
      </set>
      <set comment="kpoint 4">
       <r>  -21.9856    1.0000 </r>
       <r>  -10.0528    1.0000 </r>
       <r>   -6.7373    1.0000 </r>
       <r>   -6.2899    1.0000 </r>
       <r>    0.8315   -0.0000 </r>
       <r>    1.6228   -0.0000 </r>
       <r>    1.9503   -0.0000 </r>
       <r>    3.3337    0.0000 </r>
      </set>
      <set comment="kpoint 5">
       <r>  -21.8035    1.0000 </r>
       <r>   -9.8368    1.0000 </r>
       <r>   -7.3701    1.0000 </r>
       <r>   -6.5984    1.0000 </r>
       <r>    1.0792   -0.0000 </r>
       <r>    1.8733   -0.0000 </r>
       <r>    2.2041   -0.0000 </r>
       <r>    3.1183    0.0000 </r>
      </set>
      <set comment="kpoint 6">
       <r>  -21.5700    1.0000 </r>
       <r>   -9.5611    1.0000 </r>
       <r>   -8.1056    1.0000 </r>
       <r>   -6.9408    1.0000 </r>
       <r>    1.3976   -0.0000 </r>
       <r>    2.1949   -0.0000 </r>
       <r>    2.5305   -0.0000 </r>
       <r>    3.9042    0.0000 </r>
      </set>
      <set comment="kpoint 7">
       <r>  -21.2854    1.0000 </r>
       <r>   -9.2267    1.0000 </r>
       <r>   -8.9119    1.0000 </r>
       <r>   -7.2956    1.0000 </r>
       <r>    1.7864   -0.0000 </r>
       <r>    2.5867   -0.0000 </r>
       <r>    2.9294    0.0000 </r>
       <r>    3.8334    0.0000 </r>
      </set>
      <set comment="kpoint 8">
       <r>  -20.9505    1.0000 </r>
       <r>   -9.7614    1.0000 </r>
       <r>   -8.8360    1.0000 </r>
       <r>   -7.6448    1.0000 </r>
       <r>    2.2454   -0.0000 </r>
       <r>    3.0458    0.0000 </r>
       <r>    3.4007    0.0000 </r>
       <r>    4.2856    0.0000 </r>
      </set>
      <set comment="kpoint 9">
       <r>  -20.5659    1.0000 </r>
       <r>  -10.6338    1.0000 </r>
       <r>   -8.3917    1.0000 </r>
       <r>   -7.9745    1.0000 </r>
       <r>    2.7739    0.0000 </r>
       <r>    3.5318    0.0000 </r>
       <r>    3.9442    0.0000 </r>
       <r>    3.9887    0.0000 </r>
      </set>
      <set comment="kpoint 10">
       <r>  -20.1329    1.0000 </r>
       <r>  -11.5134    1.0000 </r>
       <r>   -8.2751    1.0000 </r>
       <r>   -7.8992    1.0000 </r>
       <r>    2.9909    0.0000 </r>
       <r>    3.3707    0.0000 </r>
       <r>    4.2241    0.0000 </r>
       <r>    4.5579    0.0000 </r>
      </set>
      <set comment="kpoint 11">
       <r>  -19.6528    1.0000 </r>
       <r>  -12.3869    1.0000 </r>
       <r>   -8.5392    1.0000 </r>
       <r>   -7.3658    1.0000 </r>
       <r>    2.0838   -0.0000 </r>
       <r>    4.0308    0.0000 </r>
       <r>    4.8248    0.0000 </r>
       <r>    4.8884    0.0000 </r>
      </set>
      <set comment="kpoint 12">
       <r>  -19.1280    1.0000 </r>
       <r>  -13.2431    1.0000 </r>
       <r>   -8.7610    1.0000 </r>
       <r>   -6.8035    1.0000 </r>
       <r>    1.1930   -0.0000 </r>
       <r>    4.6181    0.0000 </r>
       <r>    4.8645    0.0000 </r>
       <r>    5.6299    0.0000 </r>
      </set>
      <set comment="kpoint 13">
       <r>  -18.5629    1.0000 </r>
       <r>  -14.0719    1.0000 </r>
       <r>   -8.9375    1.0000 </r>
       <r>   -6.2344    1.0000 </r>
       <r>    0.3561   -0.0000 </r>
       <r>    4.5928    0.0000 </r>
       <r>    5.6023    0.0000 </r>
       <r>    6.4405    0.0000 </r>
      </set>
      <set comment="kpoint 14">
       <r>  -17.9675    1.0000 </r>
       <r>  -14.8587    1.0000 </r>
       <r>   -9.0648    1.0000 </r>
       <r>   -5.7016    1.0000 </r>
       <r>   -0.3737   -0.0000 </r>
       <r>    4.5311    0.0000 </r>
       <r>    6.4650    0.0000 </r>
       <r>    7.3164    0.0000 </r>
      </set>
      <set comment="kpoint 15">
       <r>  -17.3786    1.0000 </r>
       <r>  -15.5635    1.0000 </r>
       <r>   -9.1416    1.0000 </r>
       <r>   -5.2893    1.0000 </r>
       <r>   -0.9063   -0.0000 </r>
       <r>    4.4916    0.0000 </r>
       <r>    7.3934    0.0000 </r>
       <r>    8.2513    0.0000 </r>
      </set>
      <set comment="kpoint 16">
       <r>  -17.0290    1.0000 </r>
       <r>  -15.9517    1.0000 </r>
       <r>   -9.1676    1.0000 </r>
       <r>   -5.1260    1.0000 </r>
       <r>   -1.1101   -0.0000 </r>
       <r>    4.4788    0.0000 </r>
       <r>    8.3073    0.0000 </r>
       <r>    8.4614    0.0000 </r>
      </set>
      <set comment="kpoint 17">
       <r>  -22.1942    1.0000 </r>
       <r>  -10.3011    1.0000 </r>
       <r>   -5.9296    1.0000 </r>
       <r>   -5.8782    1.0000 </r>
       <r>    0.5484   -0.0000 </r>
       <r>    1.3362   -0.0000 </r>
       <r>    1.6601   -0.0000 </r>
       <r>    5.4979    0.0000 </r>
      </set>
      <set comment="kpoint 18">
       <r>  -22.1942    1.0000 </r>
       <r>  -10.3011    1.0000 </r>
       <r>   -5.9296    1.0000 </r>
       <r>   -5.8782    1.0000 </r>
       <r>    0.5484   -0.0000 </r>
       <r>    1.3362   -0.0000 </r>
       <r>    1.6601   -0.0000 </r>
       <r>    3.0484    0.0000 </r>
      </set>
      <set comment="kpoint 19">
       <r>  -22.1420    1.0000 </r>
       <r>  -10.2389    1.0000 </r>
       <r>   -6.1374    1.0000 </r>
       <r>   -5.9918    1.0000 </r>
       <r>    0.6192   -0.0000 </r>
       <r>    1.4078   -0.0000 </r>
       <r>    1.7327   -0.0000 </r>
       <r>    3.1237    0.0000 </r>
      </set>
      <set comment="kpoint 20">
       <r>  -22.0377    1.0000 </r>
       <r>  -10.1148    1.0000 </r>
       <r>   -6.5320    1.0000 </r>
       <r>   -6.2071    1.0000 </r>
       <r>    0.7608   -0.0000 </r>
       <r>    1.5512   -0.0000 </r>
       <r>    1.8777   -0.0000 </r>
       <r>    3.2659    0.0000 </r>
      </set>
      <set comment="kpoint 21">
       <r>  -21.8815    1.0000 </r>
       <r>   -9.9292    1.0000 </r>
       <r>   -7.0832    1.0000 </r>
       <r>   -6.4970    1.0000 </r>
       <r>    0.9731   -0.0000 </r>
       <r>    1.7660   -0.0000 </r>
       <r>    2.0954   -0.0000 </r>
       <r>    3.4282    0.0000 </r>
      </set>
      <set comment="kpoint 22">
       <r>  -21.6737    1.0000 </r>
       <r>   -9.6834    1.0000 </r>
       <r>   -7.7578    1.0000 </r>
       <r>   -6.8334    1.0000 </r>
       <r>    1.2562   -0.0000 </r>
       <r>    2.0521   -0.0000 </r>
       <r>    5.5867    0.0000 </r>
       <r>    6.7854    0.0000 </r>
      </set>
      <set comment="kpoint 23">
       <r>  -21.4147    1.0000 </r>
       <r>   -9.3783    1.0000 </r>
       <r>   -8.5201    1.0000 </r>
       <r>   -7.1904    1.0000 </r>
       <r>    1.6098   -0.0000 </r>
       <r>    2.4089   -0.0000 </r>
       <r>    2.7481    0.0000 </r>
       <r>    3.6554    0.0000 </r>
      </set>
      <set comment="kpoint 24">
       <r>  -21.1049    1.0000 </r>
       <r>   -9.3415    1.0000 </r>
       <r>   -9.0156    1.0000 </r>
       <r>   -7.5491    1.0000 </r>
       <r>    2.0338   -0.0000 </r>
       <r>    2.8351    0.0000 </r>
       <r>    5.2428    0.0000 </r>
       <r>    5.4018    0.0000 </r>
      </set>
      <set comment="kpoint 25">
       <r>  -20.7452    1.0000 </r>
       <r>  -10.1976    1.0000 </r>
       <r>   -8.5978    1.0000 </r>
       <r>   -7.8933    1.0000 </r>
       <r>    2.5277   -0.0000 </r>
       <r>    3.3227    0.0000 </r>
       <r>    4.3455    0.0000 </r>
       <r>    5.2665    0.0000 </r>
      </set>
      <set comment="kpoint 26">
       <r>  -20.3363    1.0000 </r>
       <r>  -11.0701    1.0000 </r>
       <r>   -8.2124    1.0000 </r>
       <r>   -8.1288    1.0000 </r>
       <r>    3.0908    0.0000 </r>
       <r>    3.4028    0.0000 </r>
       <r>    3.9622    0.0000 </r>
       <r>    5.1263    0.0000 </r>
      </set>
      <set comment="kpoint 27">
       <r>  -19.8797    1.0000 </r>
       <r>  -11.9443    1.0000 </r>
       <r>   -8.4974    1.0000 </r>
       <r>   -7.6150    1.0000 </r>
       <r>    2.5218   -0.0000 </r>
       <r>    3.7211    0.0000 </r>
       <r>    4.5693    0.0000 </r>
       <r>    4.9959    0.0000 </r>
      </set>
      <set comment="kpoint 28">
       <r>  -19.3771    1.0000 </r>
       <r>  -12.8076    1.0000 </r>
       <r>   -8.7422    1.0000 </r>
       <r>   -7.0650    1.0000 </r>
       <r>    1.6209   -0.0000 </r>
       <r>    4.4062    0.0000 </r>
       <r>    4.8980    0.0000 </r>
       <r>    5.2745    0.0000 </r>
      </set>
      <set comment="kpoint 29">
       <r>  -18.8318    1.0000 </r>
       <r>  -13.6493    1.0000 </r>
       <r>   -8.9426    1.0000 </r>
       <r>   -6.4954    1.0000 </r>
       <r>    0.7556   -0.0000 </r>
       <r>    4.7407    0.0000 </r>
       <r>    5.2325    0.0000 </r>
       <r>    6.0506    0.0000 </r>
      </set>
      <set comment="kpoint 30">
       <r>  -18.2498    1.0000 </r>
       <r>  -14.4578    1.0000 </r>
       <r>   -9.0954    1.0000 </r>
       <r>   -5.9369    1.0000 </r>
       <r>   -0.0334   -0.0000 </r>
       <r>    4.6792    0.0000 </r>
       <r>    6.0508    0.0000 </r>
       <r>    6.8931    0.0000 </r>
      </set>
      <set comment="kpoint 31">
       <r>  -17.6495    1.0000 </r>
       <r>  -15.2114    1.0000 </r>
       <r>   -9.1986    1.0000 </r>
       <r>   -5.4503    1.0000 </r>
       <r>   -0.6789   -0.0000 </r>
       <r>    4.6276    0.0000 </r>
       <r>    6.9470    0.0000 </r>
       <r>    7.7973    0.0000 </r>
      </set>
      <set comment="kpoint 32">
       <r>  -17.1195    1.0000 </r>
       <r>  -15.8184    1.0000 </r>
       <r>   -9.2502    1.0000 </r>
       <r>   -5.1451    1.0000 </r>
       <r>   -1.0639   -0.0000 </r>
       <r>    4.6013    0.0000 </r>
       <r>    7.9020    0.0000 </r>
       <r>    8.7501    0.0000 </r>
      </set>
      <set comment="kpoint 33">
       <r>  -17.1195    1.0000 </r>
       <r>  -15.8184    1.0000 </r>
       <r>   -9.2502    1.0000 </r>
       <r>   -5.1451    1.0000 </r>
       <r>   -1.0639   -0.0000 </r>
       <r>    4.6013    0.0000 </r>
       <r>    7.9021    0.0000 </r>
       <r>    8.7501    0.0000 </r>
      </set>
      <set comment="kpoint 34">
       <r>  -17.6495    1.0000 </r>
       <r>  -15.2114    1.0000 </r>
       <r>   -9.1986    1.0000 </r>
       <r>   -5.4503    1.0000 </r>
       <r>   -0.6789   -0.0000 </r>
       <r>    4.6276    0.0000 </r>
       <r>    6.9470    0.0000 </r>
       <r>    7.7973    0.0000 </r>
      </set>
      <set comment="kpoint 35">
       <r>  -18.2498    1.0000 </r>
       <r>  -14.4578    1.0000 </r>
       <r>   -9.0954    1.0000 </r>
       <r>   -5.9369    1.0000 </r>
       <r>   -0.0334   -0.0000 </r>
       <r>    4.6792    0.0000 </r>
       <r>    6.0508    0.0000 </r>
       <r>    6.8931    0.0000 </r>
      </set>
      <set comment="kpoint 36">
       <r>  -18.8318    1.0000 </r>
       <r>  -13.6493    1.0000 </r>
       <r>   -8.9426    1.0000 </r>
       <r>   -6.4954    1.0000 </r>
       <r>    0.7556   -0.0000 </r>
       <r>    4.7407    0.0000 </r>
       <r>    5.2325    0.0000 </r>
       <r>    6.0506    0.0000 </r>
      </set>
      <set comment="kpoint 37">
       <r>  -19.3771    1.0000 </r>
       <r>  -12.8076    1.0000 </r>
       <r>   -8.7422    1.0000 </r>
       <r>   -7.0650    1.0000 </r>
       <r>    1.6209   -0.0000 </r>
       <r>    4.4062    0.0000 </r>
       <r>    4.8980    0.0000 </r>
       <r>    5.2745    0.0000 </r>
      </set>
      <set comment="kpoint 38">
       <r>  -19.8797    1.0000 </r>
       <r>  -11.9443    1.0000 </r>
       <r>   -8.4974    1.0000 </r>
       <r>   -7.6150    1.0000 </r>
       <r>    2.5218   -0.0000 </r>
       <r>    3.7211    0.0000 </r>
       <r>    4.5693    0.0000 </r>
       <r>    5.0128    0.0000 </r>
      </set>
      <set comment="kpoint 39">
       <r>  -20.3363    1.0000 </r>
       <r>  -11.0701    1.0000 </r>
       <r>   -8.2124    1.0000 </r>
       <r>   -8.1288    1.0000 </r>
       <r>    3.0908    0.0000 </r>
       <r>    3.4028    0.0000 </r>
       <r>    3.9622    0.0000 </r>
       <r>    5.1273    0.0000 </r>
      </set>
      <set comment="kpoint 40">
       <r>  -20.7452    1.0000 </r>
       <r>  -10.1976    1.0000 </r>
       <r>   -8.5978    1.0000 </r>
       <r>   -7.8933    1.0000 </r>
       <r>    2.5277   -0.0000 </r>
       <r>    3.3227    0.0000 </r>
       <r>    4.3650    0.0000 </r>
       <r>    5.2710    0.0000 </r>
      </set>
      <set comment="kpoint 41">
       <r>  -21.1049    1.0000 </r>
       <r>   -9.3415    1.0000 </r>
       <r>   -9.0156    1.0000 </r>
       <r>   -7.5491    1.0000 </r>
       <r>    2.0338   -0.0000 </r>
       <r>    2.8351    0.0000 </r>
       <r>    4.0800    0.0000 </r>
       <r>    5.3839    0.0000 </r>
      </set>
      <set comment="kpoint 42">
       <r>  -21.4147    1.0000 </r>
       <r>   -9.3783    1.0000 </r>
       <r>   -8.5201    1.0000 </r>
       <r>   -7.1904    1.0000 </r>
       <r>    1.6098   -0.0000 </r>
       <r>    2.4089   -0.0000 </r>
       <r>    3.6576    0.0000 </r>
       <r>    4.1328    0.0000 </r>
      </set>
      <set comment="kpoint 43">
       <r>  -21.6737    1.0000 </r>
       <r>   -9.6834    1.0000 </r>
       <r>   -7.7578    1.0000 </r>
       <r>   -6.8334    1.0000 </r>
       <r>    1.2562   -0.0000 </r>
       <r>    5.5796    0.0000 </r>
       <r>    6.7826    0.0000 </r>
       <r>    7.4751    0.0000 </r>
      </set>
      <set comment="kpoint 44">
       <r>  -21.8815    1.0000 </r>
       <r>   -9.9292    1.0000 </r>
       <r>   -7.0832    1.0000 </r>
       <r>   -6.4970    1.0000 </r>
       <r>    0.9731   -0.0000 </r>
       <r>    1.7660   -0.0000 </r>
       <r>    2.0953   -0.0000 </r>
       <r>    3.4829    0.0000 </r>
      </set>
      <set comment="kpoint 45">
       <r>  -22.0377    1.0000 </r>
       <r>  -10.1148    1.0000 </r>
       <r>   -6.5319    1.0000 </r>
       <r>   -6.2071    1.0000 </r>
       <r>    0.7608   -0.0000 </r>
       <r>    1.5512   -0.0000 </r>
       <r>    5.5807    0.0000 </r>
       <r>    6.2144    0.0000 </r>
      </set>
      <set comment="kpoint 46">
       <r>  -22.1420    1.0000 </r>
       <r>  -10.2389    1.0000 </r>
       <r>   -6.1374    1.0000 </r>
       <r>   -5.9918    1.0000 </r>
       <r>    0.6192   -0.0000 </r>
       <r>    1.4078   -0.0000 </r>
       <r>    1.7328   -0.0000 </r>
       <r>    2.6544   -0.0000 </r>
      </set>
      <set comment="kpoint 47">
       <r>  -22.1159    1.0000 </r>
       <r>  -10.2079    1.0000 </r>
       <r>   -6.2444    1.0000 </r>
       <r>   -6.0408    1.0000 </r>
       <r>    0.6546   -0.0000 </r>
       <r>    1.4437   -0.0000 </r>
       <r>    1.7690   -0.0000 </r>
       <r>    2.6880    0.0000 </r>
      </set>
      <set comment="kpoint 48">
       <r>  -22.1420    1.0000 </r>
       <r>  -10.2389    1.0000 </r>
       <r>   -6.1374    1.0000 </r>
       <r>   -5.9918    1.0000 </r>
       <r>    0.6192   -0.0000 </r>
[...]
       <r>  -14.6320    1.0000 </r>
       <r>  -10.2948    1.0000 </r>
       <r>   -5.3456    1.0000 </r>
       <r>   -0.5083   -0.0000 </r>
       <r>    6.2458    0.0000 </r>
       <r>    6.8801    0.0000 </r>
       <r>    7.6325    0.0000 </r>
      </set>
      <set comment="kpoint 442">
       <r>  -17.8202    1.0000 </r>
       <r>  -14.1504    1.0000 </r>
       <r>  -10.7901    1.0000 </r>
       <r>   -5.4150    1.0000 </r>
       <r>   -0.2863   -0.0000 </r>
       <r>    6.6380    0.0000 </r>
       <r>    7.1360    0.0000 </r>
       <r>    7.3821    0.0000 </r>
      </set>
      <set comment="kpoint 443">
       <r>  -17.9131    1.0000 </r>
       <r>  -13.6869    1.0000 </r>
       <r>  -11.2729    1.0000 </r>
       <r>   -5.4667    1.0000 </r>
       <r>   -0.1072   -0.0000 </r>
       <r>    6.5107    0.0000 </r>
       <r>    7.2044    0.0000 </r>
       <r>    8.0572    0.0000 </r>
      </set>
      <set comment="kpoint 444">
       <r>  -17.9601    1.0000 </r>
       <r>  -13.3467    1.0000 </r>
       <r>  -11.6257    1.0000 </r>
       <r>   -5.4940    1.0000 </r>
       <r>   -0.0076   -0.0000 </r>
       <r>    6.4427    0.0000 </r>
       <r>    7.1110    0.0000 </r>
       <r>    9.0122    0.0000 </r>
      </set>
      <set comment="kpoint 445">
       <r>  -17.9601    1.0000 </r>
       <r>  -13.3467    1.0000 </r>
       <r>  -11.6257    1.0000 </r>
       <r>   -5.4940    1.0000 </r>
       <r>   -0.0076   -0.0000 </r>
       <r>    6.4427    0.0000 </r>
       <r>    7.1110    0.0000 </r>
       <r>    9.9742    0.0000 </r>
      </set>
      <set comment="kpoint 446">
       <r>  -17.9131    1.0000 </r>
       <r>  -13.6869    1.0000 </r>
       <r>  -11.2729    1.0000 </r>
       <r>   -5.4667    1.0000 </r>
       <r>   -0.1072   -0.0000 </r>
       <r>    6.5108    0.0000 </r>
       <r>    7.2044    0.0000 </r>
       <r>    8.0573    0.0000 </r>
      </set>
      <set comment="kpoint 447">
       <r>  -17.8202    1.0000 </r>
       <r>  -14.1504    1.0000 </r>
       <r>  -10.7901    1.0000 </r>
       <r>   -5.4150    1.0000 </r>
       <r>   -0.2863   -0.0000 </r>
       <r>    6.6380    0.0000 </r>
       <r>    7.1360    0.0000 </r>
       <r>    7.3821    0.0000 </r>
      </set>
      <set comment="kpoint 448">
       <r>  -17.6839    1.0000 </r>
       <r>  -14.6320    1.0000 </r>
       <r>  -10.2948    1.0000 </r>
       <r>   -5.3456    1.0000 </r>
       <r>   -0.5083   -0.0000 </r>
       <r>    6.2458    0.0000 </r>
       <r>    6.8801    0.0000 </r>
       <r>    7.6325    0.0000 </r>
      </set>
      <set comment="kpoint 449">
       <r>  -17.5094    1.0000 </r>
       <r>  -15.0910    1.0000 </r>
       <r>   -9.8456    1.0000 </r>
       <r>   -5.2684    1.0000 </r>
       <r>   -0.7357   -0.0000 </r>
       <r>    5.5218    0.0000 </r>
       <r>    7.1491    0.0000 </r>
       <r>    7.9472    0.0000 </r>
      </set>
      <set comment="kpoint 450">
       <r>  -17.3096    1.0000 </r>
       <r>  -15.5005    1.0000 </r>
       <r>   -9.4853    1.0000 </r>
       <r>   -5.1965    1.0000 </r>
       <r>   -0.9319   -0.0000 </r>
       <r>    4.9587    0.0000 </r>
       <r>    7.4927    0.0000 </r>
       <r>    8.3216    0.0000 </r>
      </set>
      <set comment="kpoint 451">
       <r>  -17.1195    1.0000 </r>
       <r>  -15.8184    1.0000 </r>
       <r>   -9.2502    1.0000 </r>
       <r>   -5.1451    1.0000 </r>
       <r>   -1.0639   -0.0000 </r>
       <r>    4.6013    0.0000 </r>
       <r>    7.9021    0.0000 </r>
       <r>    8.7497    0.0000 </r>
      </set>
      <set comment="kpoint 452">
       <r>  -17.0290    1.0000 </r>
       <r>  -15.9518    1.0000 </r>
       <r>   -9.1676    1.0000 </r>
       <r>   -5.1260    1.0000 </r>
       <r>   -1.1101   -0.0000 </r>
       <r>    4.4788    0.0000 </r>
       <r>    8.3703    0.0000 </r>
       <r>    9.1839    0.0000 </r>
      </set>
     </set>
    </set>
   </array>
  </eigenvalues>
  <separator name="orbital magnetization" >
   <v name="MAGDIPOLOUT">      0.00000000      0.00000000      0.00000000</v>
  </separator>
  <dos>
   <i name="efermi">     -2.78589330 </i>
   <total>
    <array>
     <dimension dim="1">gridpoints</dimension>
     <dimension dim="2">spin</dimension>
     <field>energy</field>
     <field>total</field>
     <field>integrated</field>
     <set>
      <set comment="spin 1">
       <r>   -24.2203     0.0000     0.0000 </r>
       <r>   -24.0942     0.0000     0.0000 </r>
       <r>   -23.9681     0.0000     0.0000 </r>
       <r>   -23.8420    -0.0000    -0.0000 </r>
       <r>   -23.7160    -0.0000    -0.0000 </r>
       <r>   -23.5899    -0.0000    -0.0000 </r>
       <r>   -23.4638    -0.0000    -0.0000 </r>
       <r>   -23.3377    -0.0000    -0.0000 </r>
       <r>   -23.2116    -0.0000    -0.0000 </r>
       <r>   -23.0855    -0.0000    -0.0000 </r>
       <r>   -22.9594    -0.0000    -0.0000 </r>
       <r>   -22.8333    -0.0000    -0.0000 </r>
       <r>   -22.7072    -0.0002    -0.0000 </r>
       <r>   -22.5811    -0.0019    -0.0003 </r>
       <r>   -22.4550    -0.0084    -0.0013 </r>
       <r>   -22.3290     0.0030    -0.0009 </r>
       <r>   -22.2029     0.0995     0.0116 </r>
       <r>   -22.0768     0.2465     0.0427 </r>
       <r>   -21.9507     0.3152     0.0824 </r>
       <r>   -21.8246     0.3162     0.1223 </r>
       <r>   -21.6985     0.3116     0.1616 </r>
       <r>   -21.5724     0.3104     0.2007 </r>
       <r>   -21.4463     0.3128     0.2402 </r>
       <r>   -21.3202     0.3085     0.2791 </r>
       <r>   -21.1941     0.3186     0.3192 </r>
       <r>   -21.0680     0.3043     0.3576 </r>
       <r>   -20.9420     0.3201     0.3980 </r>
       <r>   -20.8159     0.3167     0.4379 </r>
       <r>   -20.6898     0.2968     0.4753 </r>
       <r>   -20.5637     0.3410     0.5183 </r>
       <r>   -20.4376     0.3038     0.5566 </r>
       <r>   -20.3115     0.2958     0.5939 </r>
       <r>   -20.1854     0.3572     0.6390 </r>
       <r>   -20.0593     0.3038     0.6773 </r>
       <r>   -19.9332     0.2807     0.7127 </r>
       <r>   -19.8071     0.3667     0.7589 </r>
       <r>   -19.6811     0.3314     0.8007 </r>
       <r>   -19.5550     0.2615     0.8337 </r>
       <r>   -19.4289     0.3364     0.8761 </r>
       <r>   -19.3028     0.3860     0.9247 </r>
       <r>   -19.1767     0.2832     0.9605 </r>
       <r>   -19.0506     0.2712     0.9947 </r>
       <r>   -18.9245     0.3770     1.0422 </r>
       <r>   -18.7984     0.3816     1.0903 </r>
       <r>   -18.6723     0.2669     1.1240 </r>
       <r>   -18.5462     0.2763     1.1588 </r>
       <r>   -18.4201     0.4009     1.2094 </r>
       <r>   -18.2941     0.3857     1.2580 </r>
       <r>   -18.1680     0.2815     1.2935 </r>
       <r>   -18.0419     0.2639     1.3268 </r>
       <r>   -17.9158     0.4011     1.3773 </r>
       <r>   -17.7897     0.4252     1.4309 </r>
       <r>   -17.6636     0.3086     1.4699 </r>
       <r>   -17.5375     0.2690     1.5038 </r>
       <r>   -17.4114     0.3736     1.5509 </r>
       <r>   -17.2853     0.4850     1.6120 </r>
       <r>   -17.1592     0.4287     1.6661 </r>
       <r>   -17.0331     0.3676     1.7125 </r>
       <r>   -16.9071     0.3853     1.7610 </r>
       <r>   -16.7810     0.4594     1.8190 </r>
       <r>   -16.6549     0.3583     1.8641 </r>
       <r>   -16.5288     0.1112     1.8782 </r>
       <r>   -16.4027     0.1210     1.8934 </r>
       <r>   -16.2766     0.2779     1.9285 </r>
       <r>   -16.1505     0.1912     1.9526 </r>
       <r>   -16.0244     0.0607     1.9602 </r>
       <r>   -15.8983     0.1789     1.9828 </r>
       <r>   -15.7722     0.3515     2.0271 </r>
       <r>   -15.6462     0.3493     2.0711 </r>
       <r>   -15.5201     0.3043     2.1095 </r>
       <r>   -15.3940     0.3401     2.1524 </r>
       <r>   -15.2679     0.3550     2.1972 </r>
       <r>   -15.1418     0.4378     2.2524 </r>
       <r>   -15.0157     0.4932     2.3146 </r>
       <r>   -14.8896     0.4192     2.3674 </r>
       <r>   -14.7635     0.3992     2.4177 </r>
       <r>   -14.6374     0.3729     2.4648 </r>
       <r>   -14.5113     0.3384     2.5074 </r>
       <r>   -14.3852     0.3499     2.5516 </r>
       <r>   -14.2592     0.3430     2.5948 </r>
       <r>   -14.1331     0.2952     2.6320 </r>
       <r>   -14.0070     0.3174     2.6720 </r>
       <r>   -13.8809     0.3138     2.7116 </r>
       <r>   -13.7548     0.2753     2.7463 </r>
       <r>   -13.6287     0.3012     2.7843 </r>
       <r>   -13.5026     0.2752     2.8190 </r>
       <r>   -13.3765     0.2534     2.8510 </r>
       <r>   -13.2504     0.3063     2.8896 </r>
       <r>   -13.1243     0.3562     2.9345 </r>
       <r>   -12.9982     0.3464     2.9782 </r>
       <r>   -12.8722     0.3115     3.0174 </r>
       <r>   -12.7461     0.4077     3.0689 </r>
       <r>   -12.6200     0.4332     3.1235 </r>
       <r>   -12.4939     0.3008     3.1614 </r>
       <r>   -12.3678     0.3309     3.2031 </r>
       <r>   -12.2417     0.4240     3.2566 </r>
       <r>   -12.1156     0.3794     3.3044 </r>
       <r>   -11.9895     0.3841     3.3529 </r>
       <r>   -11.8634     0.4378     3.4081 </r>
       <r>   -11.7373     0.3082     3.4469 </r>
       <r>   -11.6113     0.3206     3.4874 </r>
       <r>   -11.4852     0.5313     3.5543 </r>
       <r>   -11.3591     0.4502     3.6111 </r>
       <r>   -11.2330     0.2913     3.6478 </r>
       <r>   -11.1069     0.3909     3.6971 </r>
       <r>   -10.9808     0.4984     3.7600 </r>
       <r>   -10.8547     0.4076     3.8114 </r>
       <r>   -10.7286     0.3975     3.8615 </r>
       <r>   -10.6025     0.5054     3.9252 </r>
       <r>   -10.4764     0.4093     3.9768 </r>
       <r>   -10.3503     0.4552     4.0342 </r>
       <r>   -10.2243     0.7099     4.1237 </r>
       <r>   -10.0982     0.7565     4.2191 </r>
       <r>    -9.9721     0.7196     4.3099 </r>
       <r>    -9.8460     0.7970     4.4104 </r>
       <r>    -9.7199     0.8432     4.5167 </r>
       <r>    -9.5938     0.7759     4.6145 </r>
       <r>    -9.4677     0.8465     4.7212 </r>
       <r>    -9.3416     1.0179     4.8496 </r>
       <r>    -9.2155     1.0606     4.9833 </r>
       <r>    -9.0894     1.1071     5.1229 </r>
       <r>    -8.9633     1.0201     5.2515 </r>
       <r>    -8.8373     0.9097     5.3662 </r>
       <r>    -8.7112     0.8468     5.4730 </r>
       <r>    -8.5851     0.7881     5.5724 </r>
       <r>    -8.4590     0.7911     5.6721 </r>
       <r>    -8.3329     0.6932     5.7595 </r>
       <r>    -8.2068     0.6599     5.8428 </r>
       <r>    -8.0807     0.7568     5.9382 </r>
       <r>    -7.9546     0.7542     6.0333 </r>
       <r>    -7.8285     0.5831     6.1068 </r>
       <r>    -7.7024     0.5272     6.1733 </r>
       <r>    -7.5764     0.7520     6.2681 </r>
       <r>    -7.4503     0.7242     6.3594 </r>
       <r>    -7.3242     0.4831     6.4203 </r>
       <r>    -7.1981     0.5397     6.4884 </r>
       <r>    -7.0720     0.6846     6.5747 </r>
       <r>    -6.9459     0.6394     6.6553 </r>
       <r>    -6.8198     0.5407     6.7235 </r>
       <r>    -6.6937     0.4884     6.7851 </r>
       <r>    -6.5676     0.5937     6.8599 </r>
       <r>    -6.4415     0.6892     6.9468 </r>
       <r>    -6.3154     0.5132     7.0116 </r>
       <r>    -6.1894     0.4602     7.0696 </r>
       <r>    -6.0633     0.5778     7.1424 </r>
       <r>    -5.9372     0.6606     7.2257 </r>
       <r>    -5.8111     0.5257     7.2920 </r>
       <r>    -5.6850     0.3031     7.3302 </r>
       <r>    -5.5589     0.3016     7.3683 </r>
       <r>    -5.4328     0.4914     7.4302 </r>
       <r>    -5.3067     0.5492     7.4995 </r>
       <r>    -5.1806     0.4378     7.5547 </r>
       <r>    -5.0545     0.4077     7.6061 </r>
       <r>    -4.9284     0.5904     7.6805 </r>
       <r>    -4.8024     0.5319     7.7476 </r>
       <r>    -4.6763     0.1991     7.7727 </r>
       <r>    -4.5502     0.1507     7.7917 </r>
       <r>    -4.4241     0.3046     7.8301 </r>
       <r>    -4.2980     0.3193     7.8704 </r>
       <r>    -4.1719     0.1516     7.8895 </r>
       <r>    -4.0458     0.0878     7.9006 </r>
       <r>    -3.9197     0.1574     7.9204 </r>
       <r>    -3.7936     0.1855     7.9438 </r>
       <r>    -3.6675     0.1236     7.9594 </r>
       <r>    -3.5415     0.0567     7.9665 </r>
       <r>    -3.4154     0.0543     7.9734 </r>
       <r>    -3.2893     0.1005     7.9860 </r>
       <r>    -3.1632     0.0723     7.9952 </r>
       <r>    -3.0371     0.0073     7.9961 </r>
       <r>    -2.9110     0.0022     7.9963 </r>
       <r>    -2.7849     0.0292     8.0000 </r>
       <r>    -2.6588     0.0287     8.0037 </r>
       <r>    -2.5327     0.0017     8.0039 </r>
       <r>    -2.4066     0.0111     8.0053 </r>
       <r>    -2.2805     0.0784     8.0152 </r>
       <r>    -2.1545     0.1011     8.0279 </r>
       <r>    -2.0284     0.0588     8.0353 </r>
       <r>    -1.9023     0.0649     8.0435 </r>
       <r>    -1.7762     0.1598     8.0636 </r>
       <r>    -1.6501     0.2315     8.0928 </r>
       <r>    -1.5240     0.1463     8.1113 </r>
       <r>    -1.3979     0.1280     8.1274 </r>
       <r>    -1.2718     0.3971     8.1775 </r>
       <r>    -1.1457     0.6228     8.2560 </r>
       <r>    -1.0196     0.5675     8.3276 </r>
       <r>    -0.8935     0.4580     8.3853 </r>
       <r>    -0.7675     0.4426     8.4411 </r>
       <r>    -0.6414     0.4670     8.5000 </r>
       <r>    -0.5153     0.3607     8.5455 </r>
       <r>    -0.3892     0.2730     8.5799 </r>
       <r>    -0.2631     0.2499     8.6114 </r>
       <r>    -0.1370     0.2980     8.6490 </r>
       <r>    -0.0109     0.3920     8.6984 </r>
       <r>     0.1152     0.2808     8.7338 </r>
       <r>     0.2413     0.1835     8.7570 </r>
       <r>     0.3674     0.2344     8.7865 </r>
       <r>     0.4934     0.2901     8.8231 </r>
       <r>     0.6195     0.4283     8.8771 </r>
       <r>     0.7456     0.5239     8.9432 </r>
       <r>     0.8717     0.3981     8.9934 </r>
       <r>     0.9978     0.3343     9.0355 </r>
       <r>     1.1239     0.4310     9.0899 </r>
       <r>     1.2500     0.5596     9.1604 </r>
       <r>     1.3761     0.5797     9.2335 </r>
       <r>     1.5022     0.6100     9.3104 </r>
       <r>     1.6283     0.6692     9.3948 </r>
       <r>     1.7544     0.7013     9.4832 </r>
       <r>     1.8804     0.7696     9.5803 </r>
       <r>     2.0065     0.8266     9.6845 </r>
       <r>     2.1326     0.7540     9.7796 </r>
       <r>     2.2587     0.6264     9.8586 </r>
       <r>     2.3848     0.5953     9.9336 </r>
       <r>     2.5109     0.5806    10.0068 </r>
       <r>     2.6370     0.7411    10.1003 </r>
       <r>     2.7631     0.8682    10.2097 </r>
       <r>     2.8892     0.7370    10.3027 </r>
       <r>     3.0153     0.6269    10.3817 </r>
       <r>     3.1414     0.6760    10.4669 </r>
       <r>     3.2674     0.7052    10.5559 </r>
       <r>     3.3935     0.7406    10.6492 </r>
       <r>     3.5196     0.7892    10.7487 </r>
       <r>     3.6457     0.6332    10.8286 </r>
       <r>     3.7718     0.4699    10.8878 </r>
       <r>     3.8979     0.5402    10.9559 </r>
       <r>     4.0240     0.7089    11.0453 </r>
       <r>     4.1501     0.7016    11.1338 </r>
       <r>     4.2762     0.6376    11.2142 </r>
       <r>     4.4023     0.7001    11.3025 </r>
       <r>     4.5283     0.8796    11.4134 </r>
       <r>     4.6544     1.0592    11.5469 </r>
       <r>     4.7805     0.9769    11.6701 </r>
       <r>     4.9066     1.0391    11.8011 </r>
       <r>     5.0327     1.2661    11.9608 </r>
       <r>     5.1588     1.2331    12.1162 </r>
       <r>     5.2849     1.1710    12.2639 </r>
       <r>     5.4110     1.1111    12.4040 </r>
       <r>     5.5371     1.2820    12.5656 </r>
       <r>     5.6632     1.5955    12.7668 </r>
       <r>     5.7893     1.5856    12.9668 </r>
       <r>     5.9153     1.1496    13.1117 </r>
       <r>     6.0414     0.9060    13.2259 </r>
       <r>     6.1675     1.0176    13.3543 </r>
       <r>     6.2936     1.0492    13.4866 </r>
       <r>     6.4197     1.0639    13.6207 </r>
       <r>     6.5458     1.2057    13.7727 </r>
       <r>     6.6719     1.0444    13.9044 </r>
       <r>     6.7980     0.6985    13.9925 </r>
       <r>     6.9241     0.6147    14.0700 </r>
       <r>     7.0502     0.7636    14.1663 </r>
       <r>     7.1763     0.9793    14.2898 </r>
       <r>     7.3023     1.1126    14.4300 </r>
       <r>     7.4284     1.0589    14.5636 </r>
       <r>     7.5545     0.7109    14.6532 </r>
       <r>     7.6806     0.4405    14.7087 </r>
       <r>     7.8067     0.6221    14.7872 </r>
       <r>     7.9328     1.1286    14.9295 </r>
       <r>     8.0589     1.4195    15.1085 </r>
       <r>     8.1850     1.2058    15.2605 </r>
       <r>     8.3111     0.8140    15.3631 </r>
       <r>     8.4372     0.5736    15.4355 </r>
       <r>     8.5632     0.3786    15.4832 </r>
       <r>     8.6893     0.3220    15.5238 </r>
       <r>     8.8154     0.5606    15.5945 </r>
       <r>     8.9415     0.7275    15.6862 </r>
       <r>     9.0676     0.6021    15.7621 </r>
       <r>     9.1937     0.3221    15.8028 </r>
       <r>     9.3198     0.0774    15.8125 </r>
       <r>     9.4459     0.0255    15.8157 </r>
       <r>     9.5720     0.1992    15.8409 </r>
       <r>     9.6981     0.3697    15.8875 </r>
       <r>     9.8242     0.2793    15.9227 </r>
       <r>     9.9502     0.1602    15.9429 </r>
       <r>    10.0763     0.2059    15.9689 </r>
       <r>    10.2024     0.1794    15.9915 </r>
       <r>    10.3285     0.0463    15.9973 </r>
       <r>    10.4546    -0.0087    15.9962 </r>
       <r>    10.5807    -0.0048    15.9956 </r>
       <r>    10.7068    -0.0006    15.9956 </r>
       <r>    10.8329    -0.0000    15.9956 </r>
       <r>    10.9590    -0.0000    15.9956 </r>
       <r>    11.0851    -0.0000    15.9956 </r>
       <r>    11.2112    -0.0003    15.9955 </r>
       <r>    11.3372    -0.0009    15.9954 </r>
       <r>    11.4633     0.0024    15.9957 </r>
       <r>    11.5894     0.0138    15.9975 </r>
       <r>    11.7155     0.0164    15.9995 </r>
       <r>    11.8416     0.0050    16.0002 </r>
       <r>    11.9677    -0.0007    16.0001 </r>
       <r>    12.0938    -0.0004    16.0000 </r>
       <r>    12.2199    -0.0001    16.0000 </r>
       <r>    12.3460    -0.0000    16.0000 </r>
       <r>    12.4721    -0.0000    16.0000 </r>
       <r>    12.5981    -0.0000    16.0000 </r>
       <r>    12.7242    -0.0000    16.0000 </r>
       <r>    12.8503    -0.0000    16.0000 </r>
       <r>    12.9764     0.0000    16.0000 </r>
       <r>    13.1025     0.0000    16.0000 </r>
       <r>    13.2286     0.0000    16.0000 </r>
       <r>    13.3547     0.0000    16.0000 </r>
       <r>    13.4808     0.0000    16.0000 </r>
       <r>    13.6069     0.0000    16.0000 </r>
      </set>
     </set>
    </array>
   </total>
  </dos>
 </calculation>
 <structure name="finalpos" >
  <crystal>
   <varray name="basis" >
    <v>       2.14341287      -1.23750000       0.00000000 </v>
    <v>       2.14341287       1.23750000       0.00000000 </v>
    <v>       0.00000000       0.00000000      20.00000000 </v>
   </varray>
   <i name="volume">    106.09893719 </i>
   <varray name="rec_basis" >
    <v>       0.23327284      -0.40404040       0.00000000 </v>
    <v>       0.23327284       0.40404040      -0.00000000 </v>
    <v>      -0.00000000       0.00000000       0.05000000 </v>
   </varray>
  </crystal>
  <varray name="positions" >
   <v>       0.00000000       0.00000000       0.00000000 </v>
   <v>       0.33333333       0.33333333       0.00000000 </v>
  </varray>
 </structure>
</modeling>
