unknown system                          
           1
     2.143413   -1.237500    0.000000
     2.143413    1.237500    0.000000
     0.000000    0.000000   20.000000
   C 
   2
Direct configuration=     1
   0.00000000  0.00000000  0.00000000
   0.33333333  0.33333333  0.00000000
